
12288 atoms 
4 atom types 
0 bonds 
1 bond types 
0 angles 
1 angle types 

0.00000000 36.79200000 xlo xhi
0.00000000 63.72561331 ylo yhi
0.00000000 30.09600000 zlo zhi
-36.79200000 0.00000000 0.00000000 xy xz yz

Masses 

1 107.868 
2 126.904 
3 15.9994 
4 1.008

Bond Coeffs # harmonic 

1 554.135 1 

Angle Coeffs # harmonic 

1 45.7696 109.47 

Atoms 

1  1 1 0.60000000 -0.00022995  2.65536665 4.70701440
2  2 1 0.60000000 -0.00022995  2.65536665 12.23101440
3  3 1 0.60000000 -0.00022995  2.65536665 19.75501440
4  4 1 0.60000000 -0.00022995  2.65536665 27.27901440
5  5 1 0.60000000 -2.29972995  6.63821748 4.70701440
6  6 1 0.60000000 -2.29972995  6.63821748 12.23101440
7  7 1 0.60000000 -2.29972995  6.63821748 19.75501440
8  8 1 0.60000000 -2.29972995  6.63821748 27.27901440
9  9 1 0.60000000 -4.59922995  10.62106831 4.70701440
10  10 1 0.60000000 -4.59922995  10.62106831 12.23101440
11  11 1 0.60000000 -4.59922995  10.62106831 19.75501440
12  12 1 0.60000000 -4.59922995  10.62106831 27.27901440
13  13 1 0.60000000 -6.89872995  14.60391915 4.70701440
14  14 1 0.60000000 -6.89872995  14.60391915 12.23101440
15  15 1 0.60000000 -6.89872995  14.60391915 19.75501440
16  16 1 0.60000000 -6.89872995  14.60391915 27.27901440
17  17 1 0.60000000 -9.19822995  18.58676998 4.70701440
18  18 1 0.60000000 -9.19822995  18.58676998 12.23101440
19  19 1 0.60000000 -9.19822995  18.58676998 19.75501440
20  20 1 0.60000000 -9.19822995  18.58676998 27.27901440
21  21 1 0.60000000 -11.49772995  22.56962081 4.70701440
22  22 1 0.60000000 -11.49772995  22.56962081 12.23101440
23  23 1 0.60000000 -11.49772995  22.56962081 19.75501440
24  24 1 0.60000000 -11.49772995  22.56962081 27.27901440
25  25 1 0.60000000 -13.79722995  26.55247164 4.70701440
26  26 1 0.60000000 -13.79722995  26.55247164 12.23101440
27  27 1 0.60000000 -13.79722995  26.55247164 19.75501440
28  28 1 0.60000000 -13.79722995  26.55247164 27.27901440
29  29 1 0.60000000 -16.09672995  30.53532247 4.70701440
30  30 1 0.60000000 -16.09672995  30.53532247 12.23101440
31  31 1 0.60000000 -16.09672995  30.53532247 19.75501440
32  32 1 0.60000000 -16.09672995  30.53532247 27.27901440
33  33 1 0.60000000 -18.39622995  34.51817330 4.70701440
34  34 1 0.60000000 -18.39622995  34.51817330 12.23101440
35  35 1 0.60000000 -18.39622995  34.51817330 19.75501440
36  36 1 0.60000000 -18.39622995  34.51817330 27.27901440
37  37 1 0.60000000 -20.69572995  38.50102414 4.70701440
38  38 1 0.60000000 -20.69572995  38.50102414 12.23101440
39  39 1 0.60000000 -20.69572995  38.50102414 19.75501440
40  40 1 0.60000000 -20.69572995  38.50102414 27.27901440
41  41 1 0.60000000 -22.99522995  42.48387497 4.70701440
42  42 1 0.60000000 -22.99522995  42.48387497 12.23101440
43  43 1 0.60000000 -22.99522995  42.48387497 19.75501440
44  44 1 0.60000000 -22.99522995  42.48387497 27.27901440
45  45 1 0.60000000 -25.29472996  46.46672580 4.70701440
46  46 1 0.60000000 -25.29472996  46.46672580 12.23101440
47  47 1 0.60000000 -25.29472996  46.46672580 19.75501440
48  48 1 0.60000000 -25.29472996  46.46672580 27.27901440
49  49 1 0.60000000 -27.59422996  50.44957663 4.70701440
50  50 1 0.60000000 -27.59422996  50.44957663 12.23101440
51  51 1 0.60000000 -27.59422996  50.44957663 19.75501440
52  52 1 0.60000000 -27.59422996  50.44957663 27.27901440
53  53 1 0.60000000 -29.89372996  54.43242746 4.70701440
54  54 1 0.60000000 -29.89372996  54.43242746 12.23101440
55  55 1 0.60000000 -29.89372996  54.43242746 19.75501440
56  56 1 0.60000000 -29.89372996  54.43242746 27.27901440
57  57 1 0.60000000 -32.19322996  58.41527829 4.70701440
58  58 1 0.60000000 -32.19322996  58.41527829 12.23101440
59  59 1 0.60000000 -32.19322996  58.41527829 19.75501440
60  60 1 0.60000000 -32.19322996  58.41527829 27.27901440
61  61 1 0.60000000 -34.49272996  62.39812913 4.70701440
62  62 1 0.60000000 -34.49272996  62.39812913 12.23101440
63  63 1 0.60000000 -34.49272996  62.39812913 19.75501440
64  64 1 0.60000000 -34.49272996  62.39812913 27.27901440
65  65 1 0.60000000 4.59877005  2.65536665 4.70701440
66  66 1 0.60000000 4.59877005  2.65536665 12.23101440
67  67 1 0.60000000 4.59877005  2.65536665 19.75501440
68  68 1 0.60000000 4.59877005  2.65536665 27.27901440
69  69 1 0.60000000 2.29927005  6.63821748 4.70701440
70  70 1 0.60000000 2.29927005  6.63821748 12.23101440
71  71 1 0.60000000 2.29927005  6.63821748 19.75501440
72  72 1 0.60000000 2.29927005  6.63821748 27.27901440
73  73 1 0.60000000 -0.00022995  10.62106831 4.70701440
74  74 1 0.60000000 -0.00022995  10.62106831 12.23101440
75  75 1 0.60000000 -0.00022995  10.62106831 19.75501440
76  76 1 0.60000000 -0.00022995  10.62106831 27.27901440
77  77 1 0.60000000 -2.29972995  14.60391915 4.70701440
78  78 1 0.60000000 -2.29972995  14.60391915 12.23101440
79  79 1 0.60000000 -2.29972995  14.60391915 19.75501440
80  80 1 0.60000000 -2.29972995  14.60391915 27.27901440
81  81 1 0.60000000 -4.59922995  18.58676998 4.70701440
82  82 1 0.60000000 -4.59922995  18.58676998 12.23101440
83  83 1 0.60000000 -4.59922995  18.58676998 19.75501440
84  84 1 0.60000000 -4.59922995  18.58676998 27.27901440
85  85 1 0.60000000 -6.89872995  22.56962081 4.70701440
86  86 1 0.60000000 -6.89872995  22.56962081 12.23101440
87  87 1 0.60000000 -6.89872995  22.56962081 19.75501440
88  88 1 0.60000000 -6.89872995  22.56962081 27.27901440
89  89 1 0.60000000 -9.19822995  26.55247164 4.70701440
90  90 1 0.60000000 -9.19822995  26.55247164 12.23101440
91  91 1 0.60000000 -9.19822995  26.55247164 19.75501440
92  92 1 0.60000000 -9.19822995  26.55247164 27.27901440
93  93 1 0.60000000 -11.49772995  30.53532247 4.70701440
94  94 1 0.60000000 -11.49772995  30.53532247 12.23101440
95  95 1 0.60000000 -11.49772995  30.53532247 19.75501440
96  96 1 0.60000000 -11.49772995  30.53532247 27.27901440
97  97 1 0.60000000 -13.79722995  34.51817330 4.70701440
98  98 1 0.60000000 -13.79722995  34.51817330 12.23101440
99  99 1 0.60000000 -13.79722995  34.51817330 19.75501440
100  100 1 0.60000000 -13.79722995  34.51817330 27.27901440
101  101 1 0.60000000 -16.09672995  38.50102414 4.70701440
102  102 1 0.60000000 -16.09672995  38.50102414 12.23101440
103  103 1 0.60000000 -16.09672995  38.50102414 19.75501440
104  104 1 0.60000000 -16.09672995  38.50102414 27.27901440
105  105 1 0.60000000 -18.39622995  42.48387497 4.70701440
106  106 1 0.60000000 -18.39622995  42.48387497 12.23101440
107  107 1 0.60000000 -18.39622995  42.48387497 19.75501440
108  108 1 0.60000000 -18.39622995  42.48387497 27.27901440
109  109 1 0.60000000 -20.69572996  46.46672580 4.70701440
110  110 1 0.60000000 -20.69572996  46.46672580 12.23101440
111  111 1 0.60000000 -20.69572996  46.46672580 19.75501440
112  112 1 0.60000000 -20.69572996  46.46672580 27.27901440
113  113 1 0.60000000 -22.99522996  50.44957663 4.70701440
114  114 1 0.60000000 -22.99522996  50.44957663 12.23101440
115  115 1 0.60000000 -22.99522996  50.44957663 19.75501440
116  116 1 0.60000000 -22.99522996  50.44957663 27.27901440
117  117 1 0.60000000 -25.29472996  54.43242746 4.70701440
118  118 1 0.60000000 -25.29472996  54.43242746 12.23101440
119  119 1 0.60000000 -25.29472996  54.43242746 19.75501440
120  120 1 0.60000000 -25.29472996  54.43242746 27.27901440
121  121 1 0.60000000 -27.59422996  58.41527829 4.70701440
122  122 1 0.60000000 -27.59422996  58.41527829 12.23101440
123  123 1 0.60000000 -27.59422996  58.41527829 19.75501440
124  124 1 0.60000000 -27.59422996  58.41527829 27.27901440
125  125 1 0.60000000 -29.89372996  62.39812913 4.70701440
126  126 1 0.60000000 -29.89372996  62.39812913 12.23101440
127  127 1 0.60000000 -29.89372996  62.39812913 19.75501440
128  128 1 0.60000000 -29.89372996  62.39812913 27.27901440
129  129 1 0.60000000 9.19777005  2.65536665 4.70701440
130  130 1 0.60000000 9.19777005  2.65536665 12.23101440
131  131 1 0.60000000 9.19777005  2.65536665 19.75501440
132  132 1 0.60000000 9.19777005  2.65536665 27.27901440
133  133 1 0.60000000 6.89827005  6.63821748 4.70701440
134  134 1 0.60000000 6.89827005  6.63821748 12.23101440
135  135 1 0.60000000 6.89827005  6.63821748 19.75501440
136  136 1 0.60000000 6.89827005  6.63821748 27.27901440
137  137 1 0.60000000 4.59877005  10.62106831 4.70701440
138  138 1 0.60000000 4.59877005  10.62106831 12.23101440
139  139 1 0.60000000 4.59877005  10.62106831 19.75501440
140  140 1 0.60000000 4.59877005  10.62106831 27.27901440
141  141 1 0.60000000 2.29927005  14.60391915 4.70701440
142  142 1 0.60000000 2.29927005  14.60391915 12.23101440
143  143 1 0.60000000 2.29927005  14.60391915 19.75501440
144  144 1 0.60000000 2.29927005  14.60391915 27.27901440
145  145 1 0.60000000 -0.00022995  18.58676998 4.70701440
146  146 1 0.60000000 -0.00022995  18.58676998 12.23101440
147  147 1 0.60000000 -0.00022995  18.58676998 19.75501440
148  148 1 0.60000000 -0.00022995  18.58676998 27.27901440
149  149 1 0.60000000 -2.29972995  22.56962081 4.70701440
150  150 1 0.60000000 -2.29972995  22.56962081 12.23101440
151  151 1 0.60000000 -2.29972995  22.56962081 19.75501440
152  152 1 0.60000000 -2.29972995  22.56962081 27.27901440
153  153 1 0.60000000 -4.59922995  26.55247164 4.70701440
154  154 1 0.60000000 -4.59922995  26.55247164 12.23101440
155  155 1 0.60000000 -4.59922995  26.55247164 19.75501440
156  156 1 0.60000000 -4.59922995  26.55247164 27.27901440
157  157 1 0.60000000 -6.89872995  30.53532247 4.70701440
158  158 1 0.60000000 -6.89872995  30.53532247 12.23101440
159  159 1 0.60000000 -6.89872995  30.53532247 19.75501440
160  160 1 0.60000000 -6.89872995  30.53532247 27.27901440
161  161 1 0.60000000 -9.19822995  34.51817330 4.70701440
162  162 1 0.60000000 -9.19822995  34.51817330 12.23101440
163  163 1 0.60000000 -9.19822995  34.51817330 19.75501440
164  164 1 0.60000000 -9.19822995  34.51817330 27.27901440
165  165 1 0.60000000 -11.49772995  38.50102414 4.70701440
166  166 1 0.60000000 -11.49772995  38.50102414 12.23101440
167  167 1 0.60000000 -11.49772995  38.50102414 19.75501440
168  168 1 0.60000000 -11.49772995  38.50102414 27.27901440
169  169 1 0.60000000 -13.79722996  42.48387497 4.70701440
170  170 1 0.60000000 -13.79722996  42.48387497 12.23101440
171  171 1 0.60000000 -13.79722996  42.48387497 19.75501440
172  172 1 0.60000000 -13.79722996  42.48387497 27.27901440
173  173 1 0.60000000 -16.09672996  46.46672580 4.70701440
174  174 1 0.60000000 -16.09672996  46.46672580 12.23101440
175  175 1 0.60000000 -16.09672996  46.46672580 19.75501440
176  176 1 0.60000000 -16.09672996  46.46672580 27.27901440
177  177 1 0.60000000 -18.39622996  50.44957663 4.70701440
178  178 1 0.60000000 -18.39622996  50.44957663 12.23101440
179  179 1 0.60000000 -18.39622996  50.44957663 19.75501440
180  180 1 0.60000000 -18.39622996  50.44957663 27.27901440
181  181 1 0.60000000 -20.69572996  54.43242746 4.70701440
182  182 1 0.60000000 -20.69572996  54.43242746 12.23101440
183  183 1 0.60000000 -20.69572996  54.43242746 19.75501440
184  184 1 0.60000000 -20.69572996  54.43242746 27.27901440
185  185 1 0.60000000 -22.99522996  58.41527829 4.70701440
186  186 1 0.60000000 -22.99522996  58.41527829 12.23101440
187  187 1 0.60000000 -22.99522996  58.41527829 19.75501440
188  188 1 0.60000000 -22.99522996  58.41527829 27.27901440
189  189 1 0.60000000 -25.29472996  62.39812913 4.70701440
190  190 1 0.60000000 -25.29472996  62.39812913 12.23101440
191  191 1 0.60000000 -25.29472996  62.39812913 19.75501440
192  192 1 0.60000000 -25.29472996  62.39812913 27.27901440
193  193 1 0.60000000 13.79677005  2.65536665 4.70701440
194  194 1 0.60000000 13.79677005  2.65536665 12.23101440
195  195 1 0.60000000 13.79677005  2.65536665 19.75501440
196  196 1 0.60000000 13.79677005  2.65536665 27.27901440
197  197 1 0.60000000 11.49727005  6.63821748 4.70701440
198  198 1 0.60000000 11.49727005  6.63821748 12.23101440
199  199 1 0.60000000 11.49727005  6.63821748 19.75501440
200  200 1 0.60000000 11.49727005  6.63821748 27.27901440
201  201 1 0.60000000 9.19777005  10.62106831 4.70701440
202  202 1 0.60000000 9.19777005  10.62106831 12.23101440
203  203 1 0.60000000 9.19777005  10.62106831 19.75501440
204  204 1 0.60000000 9.19777005  10.62106831 27.27901440
205  205 1 0.60000000 6.89827005  14.60391915 4.70701440
206  206 1 0.60000000 6.89827005  14.60391915 12.23101440
207  207 1 0.60000000 6.89827005  14.60391915 19.75501440
208  208 1 0.60000000 6.89827005  14.60391915 27.27901440
209  209 1 0.60000000 4.59877005  18.58676998 4.70701440
210  210 1 0.60000000 4.59877005  18.58676998 12.23101440
211  211 1 0.60000000 4.59877005  18.58676998 19.75501440
212  212 1 0.60000000 4.59877005  18.58676998 27.27901440
213  213 1 0.60000000 2.29927005  22.56962081 4.70701440
214  214 1 0.60000000 2.29927005  22.56962081 12.23101440
215  215 1 0.60000000 2.29927005  22.56962081 19.75501440
216  216 1 0.60000000 2.29927005  22.56962081 27.27901440
217  217 1 0.60000000 -0.00022995  26.55247164 4.70701440
218  218 1 0.60000000 -0.00022995  26.55247164 12.23101440
219  219 1 0.60000000 -0.00022995  26.55247164 19.75501440
220  220 1 0.60000000 -0.00022995  26.55247164 27.27901440
221  221 1 0.60000000 -2.29972995  30.53532247 4.70701440
222  222 1 0.60000000 -2.29972995  30.53532247 12.23101440
223  223 1 0.60000000 -2.29972995  30.53532247 19.75501440
224  224 1 0.60000000 -2.29972995  30.53532247 27.27901440
225  225 1 0.60000000 -4.59922995  34.51817330 4.70701440
226  226 1 0.60000000 -4.59922995  34.51817330 12.23101440
227  227 1 0.60000000 -4.59922995  34.51817330 19.75501440
228  228 1 0.60000000 -4.59922995  34.51817330 27.27901440
229  229 1 0.60000000 -6.89872995  38.50102414 4.70701440
230  230 1 0.60000000 -6.89872995  38.50102414 12.23101440
231  231 1 0.60000000 -6.89872995  38.50102414 19.75501440
232  232 1 0.60000000 -6.89872995  38.50102414 27.27901440
233  233 1 0.60000000 -9.19822996  42.48387497 4.70701440
234  234 1 0.60000000 -9.19822996  42.48387497 12.23101440
235  235 1 0.60000000 -9.19822996  42.48387497 19.75501440
236  236 1 0.60000000 -9.19822996  42.48387497 27.27901440
237  237 1 0.60000000 -11.49772996  46.46672580 4.70701440
238  238 1 0.60000000 -11.49772996  46.46672580 12.23101440
239  239 1 0.60000000 -11.49772996  46.46672580 19.75501440
240  240 1 0.60000000 -11.49772996  46.46672580 27.27901440
241  241 1 0.60000000 -13.79722996  50.44957663 4.70701440
242  242 1 0.60000000 -13.79722996  50.44957663 12.23101440
243  243 1 0.60000000 -13.79722996  50.44957663 19.75501440
244  244 1 0.60000000 -13.79722996  50.44957663 27.27901440
245  245 1 0.60000000 -16.09672996  54.43242746 4.70701440
246  246 1 0.60000000 -16.09672996  54.43242746 12.23101440
247  247 1 0.60000000 -16.09672996  54.43242746 19.75501440
248  248 1 0.60000000 -16.09672996  54.43242746 27.27901440
249  249 1 0.60000000 -18.39622996  58.41527829 4.70701440
250  250 1 0.60000000 -18.39622996  58.41527829 12.23101440
251  251 1 0.60000000 -18.39622996  58.41527829 19.75501440
252  252 1 0.60000000 -18.39622996  58.41527829 27.27901440
253  253 1 0.60000000 -20.69572996  62.39812913 4.70701440
254  254 1 0.60000000 -20.69572996  62.39812913 12.23101440
255  255 1 0.60000000 -20.69572996  62.39812913 19.75501440
256  256 1 0.60000000 -20.69572996  62.39812913 27.27901440
257  257 1 0.60000000 18.39577005  2.65536665 4.70701440
258  258 1 0.60000000 18.39577005  2.65536665 12.23101440
259  259 1 0.60000000 18.39577005  2.65536665 19.75501440
260  260 1 0.60000000 18.39577005  2.65536665 27.27901440
261  261 1 0.60000000 16.09627005  6.63821748 4.70701440
262  262 1 0.60000000 16.09627005  6.63821748 12.23101440
263  263 1 0.60000000 16.09627005  6.63821748 19.75501440
264  264 1 0.60000000 16.09627005  6.63821748 27.27901440
265  265 1 0.60000000 13.79677005  10.62106831 4.70701440
266  266 1 0.60000000 13.79677005  10.62106831 12.23101440
267  267 1 0.60000000 13.79677005  10.62106831 19.75501440
268  268 1 0.60000000 13.79677005  10.62106831 27.27901440
269  269 1 0.60000000 11.49727005  14.60391915 4.70701440
270  270 1 0.60000000 11.49727005  14.60391915 12.23101440
271  271 1 0.60000000 11.49727005  14.60391915 19.75501440
272  272 1 0.60000000 11.49727005  14.60391915 27.27901440
273  273 1 0.60000000 9.19777005  18.58676998 4.70701440
274  274 1 0.60000000 9.19777005  18.58676998 12.23101440
275  275 1 0.60000000 9.19777005  18.58676998 19.75501440
276  276 1 0.60000000 9.19777005  18.58676998 27.27901440
277  277 1 0.60000000 6.89827005  22.56962081 4.70701440
278  278 1 0.60000000 6.89827005  22.56962081 12.23101440
279  279 1 0.60000000 6.89827005  22.56962081 19.75501440
280  280 1 0.60000000 6.89827005  22.56962081 27.27901440
281  281 1 0.60000000 4.59877005  26.55247164 4.70701440
282  282 1 0.60000000 4.59877005  26.55247164 12.23101440
283  283 1 0.60000000 4.59877005  26.55247164 19.75501440
284  284 1 0.60000000 4.59877005  26.55247164 27.27901440
285  285 1 0.60000000 2.29927005  30.53532247 4.70701440
286  286 1 0.60000000 2.29927005  30.53532247 12.23101440
287  287 1 0.60000000 2.29927005  30.53532247 19.75501440
288  288 1 0.60000000 2.29927005  30.53532247 27.27901440
289  289 1 0.60000000 -0.00022995  34.51817330 4.70701440
290  290 1 0.60000000 -0.00022995  34.51817330 12.23101440
291  291 1 0.60000000 -0.00022995  34.51817330 19.75501440
292  292 1 0.60000000 -0.00022995  34.51817330 27.27901440
293  293 1 0.60000000 -2.29972995  38.50102414 4.70701440
294  294 1 0.60000000 -2.29972995  38.50102414 12.23101440
295  295 1 0.60000000 -2.29972995  38.50102414 19.75501440
296  296 1 0.60000000 -2.29972995  38.50102414 27.27901440
297  297 1 0.60000000 -4.59922996  42.48387497 4.70701440
298  298 1 0.60000000 -4.59922996  42.48387497 12.23101440
299  299 1 0.60000000 -4.59922996  42.48387497 19.75501440
300  300 1 0.60000000 -4.59922996  42.48387497 27.27901440
301  301 1 0.60000000 -6.89872996  46.46672580 4.70701440
302  302 1 0.60000000 -6.89872996  46.46672580 12.23101440
303  303 1 0.60000000 -6.89872996  46.46672580 19.75501440
304  304 1 0.60000000 -6.89872996  46.46672580 27.27901440
305  305 1 0.60000000 -9.19822996  50.44957663 4.70701440
306  306 1 0.60000000 -9.19822996  50.44957663 12.23101440
307  307 1 0.60000000 -9.19822996  50.44957663 19.75501440
308  308 1 0.60000000 -9.19822996  50.44957663 27.27901440
309  309 1 0.60000000 -11.49772996  54.43242746 4.70701440
310  310 1 0.60000000 -11.49772996  54.43242746 12.23101440
311  311 1 0.60000000 -11.49772996  54.43242746 19.75501440
312  312 1 0.60000000 -11.49772996  54.43242746 27.27901440
313  313 1 0.60000000 -13.79722996  58.41527829 4.70701440
314  314 1 0.60000000 -13.79722996  58.41527829 12.23101440
315  315 1 0.60000000 -13.79722996  58.41527829 19.75501440
316  316 1 0.60000000 -13.79722996  58.41527829 27.27901440
317  317 1 0.60000000 -16.09672996  62.39812913 4.70701440
318  318 1 0.60000000 -16.09672996  62.39812913 12.23101440
319  319 1 0.60000000 -16.09672996  62.39812913 19.75501440
320  320 1 0.60000000 -16.09672996  62.39812913 27.27901440
321  321 1 0.60000000 22.99477005  2.65536665 4.70701440
322  322 1 0.60000000 22.99477005  2.65536665 12.23101440
323  323 1 0.60000000 22.99477005  2.65536665 19.75501440
324  324 1 0.60000000 22.99477005  2.65536665 27.27901440
325  325 1 0.60000000 20.69527005  6.63821748 4.70701440
326  326 1 0.60000000 20.69527005  6.63821748 12.23101440
327  327 1 0.60000000 20.69527005  6.63821748 19.75501440
328  328 1 0.60000000 20.69527005  6.63821748 27.27901440
329  329 1 0.60000000 18.39577005  10.62106831 4.70701440
330  330 1 0.60000000 18.39577005  10.62106831 12.23101440
331  331 1 0.60000000 18.39577005  10.62106831 19.75501440
332  332 1 0.60000000 18.39577005  10.62106831 27.27901440
333  333 1 0.60000000 16.09627005  14.60391915 4.70701440
334  334 1 0.60000000 16.09627005  14.60391915 12.23101440
335  335 1 0.60000000 16.09627005  14.60391915 19.75501440
336  336 1 0.60000000 16.09627005  14.60391915 27.27901440
337  337 1 0.60000000 13.79677005  18.58676998 4.70701440
338  338 1 0.60000000 13.79677005  18.58676998 12.23101440
339  339 1 0.60000000 13.79677005  18.58676998 19.75501440
340  340 1 0.60000000 13.79677005  18.58676998 27.27901440
341  341 1 0.60000000 11.49727005  22.56962081 4.70701440
342  342 1 0.60000000 11.49727005  22.56962081 12.23101440
343  343 1 0.60000000 11.49727005  22.56962081 19.75501440
344  344 1 0.60000000 11.49727005  22.56962081 27.27901440
345  345 1 0.60000000 9.19777005  26.55247164 4.70701440
346  346 1 0.60000000 9.19777005  26.55247164 12.23101440
347  347 1 0.60000000 9.19777005  26.55247164 19.75501440
348  348 1 0.60000000 9.19777005  26.55247164 27.27901440
349  349 1 0.60000000 6.89827005  30.53532247 4.70701440
350  350 1 0.60000000 6.89827005  30.53532247 12.23101440
351  351 1 0.60000000 6.89827005  30.53532247 19.75501440
352  352 1 0.60000000 6.89827005  30.53532247 27.27901440
353  353 1 0.60000000 4.59877005  34.51817330 4.70701440
354  354 1 0.60000000 4.59877005  34.51817330 12.23101440
355  355 1 0.60000000 4.59877005  34.51817330 19.75501440
356  356 1 0.60000000 4.59877005  34.51817330 27.27901440
357  357 1 0.60000000 2.29927005  38.50102414 4.70701440
358  358 1 0.60000000 2.29927005  38.50102414 12.23101440
359  359 1 0.60000000 2.29927005  38.50102414 19.75501440
360  360 1 0.60000000 2.29927005  38.50102414 27.27901440
361  361 1 0.60000000 -0.00022996  42.48387497 4.70701440
362  362 1 0.60000000 -0.00022996  42.48387497 12.23101440
363  363 1 0.60000000 -0.00022996  42.48387497 19.75501440
364  364 1 0.60000000 -0.00022996  42.48387497 27.27901440
365  365 1 0.60000000 -2.29972996  46.46672580 4.70701440
366  366 1 0.60000000 -2.29972996  46.46672580 12.23101440
367  367 1 0.60000000 -2.29972996  46.46672580 19.75501440
368  368 1 0.60000000 -2.29972996  46.46672580 27.27901440
369  369 1 0.60000000 -4.59922996  50.44957663 4.70701440
370  370 1 0.60000000 -4.59922996  50.44957663 12.23101440
371  371 1 0.60000000 -4.59922996  50.44957663 19.75501440
372  372 1 0.60000000 -4.59922996  50.44957663 27.27901440
373  373 1 0.60000000 -6.89872996  54.43242746 4.70701440
374  374 1 0.60000000 -6.89872996  54.43242746 12.23101440
375  375 1 0.60000000 -6.89872996  54.43242746 19.75501440
376  376 1 0.60000000 -6.89872996  54.43242746 27.27901440
377  377 1 0.60000000 -9.19822996  58.41527829 4.70701440
378  378 1 0.60000000 -9.19822996  58.41527829 12.23101440
379  379 1 0.60000000 -9.19822996  58.41527829 19.75501440
380  380 1 0.60000000 -9.19822996  58.41527829 27.27901440
381  381 1 0.60000000 -11.49772996  62.39812913 4.70701440
382  382 1 0.60000000 -11.49772996  62.39812913 12.23101440
383  383 1 0.60000000 -11.49772996  62.39812913 19.75501440
384  384 1 0.60000000 -11.49772996  62.39812913 27.27901440
385  385 1 0.60000000 27.59377005  2.65536665 4.70701440
386  386 1 0.60000000 27.59377005  2.65536665 12.23101440
387  387 1 0.60000000 27.59377005  2.65536665 19.75501440
388  388 1 0.60000000 27.59377005  2.65536665 27.27901440
389  389 1 0.60000000 25.29427005  6.63821748 4.70701440
390  390 1 0.60000000 25.29427005  6.63821748 12.23101440
391  391 1 0.60000000 25.29427005  6.63821748 19.75501440
392  392 1 0.60000000 25.29427005  6.63821748 27.27901440
393  393 1 0.60000000 22.99477005  10.62106831 4.70701440
394  394 1 0.60000000 22.99477005  10.62106831 12.23101440
395  395 1 0.60000000 22.99477005  10.62106831 19.75501440
396  396 1 0.60000000 22.99477005  10.62106831 27.27901440
397  397 1 0.60000000 20.69527005  14.60391915 4.70701440
398  398 1 0.60000000 20.69527005  14.60391915 12.23101440
399  399 1 0.60000000 20.69527005  14.60391915 19.75501440
400  400 1 0.60000000 20.69527005  14.60391915 27.27901440
401  401 1 0.60000000 18.39577005  18.58676998 4.70701440
402  402 1 0.60000000 18.39577005  18.58676998 12.23101440
403  403 1 0.60000000 18.39577005  18.58676998 19.75501440
404  404 1 0.60000000 18.39577005  18.58676998 27.27901440
405  405 1 0.60000000 16.09627005  22.56962081 4.70701440
406  406 1 0.60000000 16.09627005  22.56962081 12.23101440
407  407 1 0.60000000 16.09627005  22.56962081 19.75501440
408  408 1 0.60000000 16.09627005  22.56962081 27.27901440
409  409 1 0.60000000 13.79677005  26.55247164 4.70701440
410  410 1 0.60000000 13.79677005  26.55247164 12.23101440
411  411 1 0.60000000 13.79677005  26.55247164 19.75501440
412  412 1 0.60000000 13.79677005  26.55247164 27.27901440
413  413 1 0.60000000 11.49727005  30.53532247 4.70701440
414  414 1 0.60000000 11.49727005  30.53532247 12.23101440
415  415 1 0.60000000 11.49727005  30.53532247 19.75501440
416  416 1 0.60000000 11.49727005  30.53532247 27.27901440
417  417 1 0.60000000 9.19777005  34.51817330 4.70701440
418  418 1 0.60000000 9.19777005  34.51817330 12.23101440
419  419 1 0.60000000 9.19777005  34.51817330 19.75501440
420  420 1 0.60000000 9.19777005  34.51817330 27.27901440
421  421 1 0.60000000 6.89827005  38.50102414 4.70701440
422  422 1 0.60000000 6.89827005  38.50102414 12.23101440
423  423 1 0.60000000 6.89827005  38.50102414 19.75501440
424  424 1 0.60000000 6.89827005  38.50102414 27.27901440
425  425 1 0.60000000 4.59877005  42.48387497 4.70701440
426  426 1 0.60000000 4.59877005  42.48387497 12.23101440
427  427 1 0.60000000 4.59877005  42.48387497 19.75501440
428  428 1 0.60000000 4.59877005  42.48387497 27.27901440
429  429 1 0.60000000 2.29927005  46.46672580 4.70701440
430  430 1 0.60000000 2.29927005  46.46672580 12.23101440
431  431 1 0.60000000 2.29927005  46.46672580 19.75501440
432  432 1 0.60000000 2.29927005  46.46672580 27.27901440
433  433 1 0.60000000 -0.00022996  50.44957663 4.70701440
434  434 1 0.60000000 -0.00022996  50.44957663 12.23101440
435  435 1 0.60000000 -0.00022996  50.44957663 19.75501440
436  436 1 0.60000000 -0.00022996  50.44957663 27.27901440
437  437 1 0.60000000 -2.29972996  54.43242746 4.70701440
438  438 1 0.60000000 -2.29972996  54.43242746 12.23101440
439  439 1 0.60000000 -2.29972996  54.43242746 19.75501440
440  440 1 0.60000000 -2.29972996  54.43242746 27.27901440
441  441 1 0.60000000 -4.59922996  58.41527829 4.70701440
442  442 1 0.60000000 -4.59922996  58.41527829 12.23101440
443  443 1 0.60000000 -4.59922996  58.41527829 19.75501440
444  444 1 0.60000000 -4.59922996  58.41527829 27.27901440
445  445 1 0.60000000 -6.89872996  62.39812913 4.70701440
446  446 1 0.60000000 -6.89872996  62.39812913 12.23101440
447  447 1 0.60000000 -6.89872996  62.39812913 19.75501440
448  448 1 0.60000000 -6.89872996  62.39812913 27.27901440
449  449 1 0.60000000 32.19277005  2.65536665 4.70701440
450  450 1 0.60000000 32.19277005  2.65536665 12.23101440
451  451 1 0.60000000 32.19277005  2.65536665 19.75501440
452  452 1 0.60000000 32.19277005  2.65536665 27.27901440
453  453 1 0.60000000 29.89327005  6.63821748 4.70701440
454  454 1 0.60000000 29.89327005  6.63821748 12.23101440
455  455 1 0.60000000 29.89327005  6.63821748 19.75501440
456  456 1 0.60000000 29.89327005  6.63821748 27.27901440
457  457 1 0.60000000 27.59377005  10.62106831 4.70701440
458  458 1 0.60000000 27.59377005  10.62106831 12.23101440
459  459 1 0.60000000 27.59377005  10.62106831 19.75501440
460  460 1 0.60000000 27.59377005  10.62106831 27.27901440
461  461 1 0.60000000 25.29427005  14.60391915 4.70701440
462  462 1 0.60000000 25.29427005  14.60391915 12.23101440
463  463 1 0.60000000 25.29427005  14.60391915 19.75501440
464  464 1 0.60000000 25.29427005  14.60391915 27.27901440
465  465 1 0.60000000 22.99477005  18.58676998 4.70701440
466  466 1 0.60000000 22.99477005  18.58676998 12.23101440
467  467 1 0.60000000 22.99477005  18.58676998 19.75501440
468  468 1 0.60000000 22.99477005  18.58676998 27.27901440
469  469 1 0.60000000 20.69527005  22.56962081 4.70701440
470  470 1 0.60000000 20.69527005  22.56962081 12.23101440
471  471 1 0.60000000 20.69527005  22.56962081 19.75501440
472  472 1 0.60000000 20.69527005  22.56962081 27.27901440
473  473 1 0.60000000 18.39577005  26.55247164 4.70701440
474  474 1 0.60000000 18.39577005  26.55247164 12.23101440
475  475 1 0.60000000 18.39577005  26.55247164 19.75501440
476  476 1 0.60000000 18.39577005  26.55247164 27.27901440
477  477 1 0.60000000 16.09627005  30.53532247 4.70701440
478  478 1 0.60000000 16.09627005  30.53532247 12.23101440
479  479 1 0.60000000 16.09627005  30.53532247 19.75501440
480  480 1 0.60000000 16.09627005  30.53532247 27.27901440
481  481 1 0.60000000 13.79677005  34.51817330 4.70701440
482  482 1 0.60000000 13.79677005  34.51817330 12.23101440
483  483 1 0.60000000 13.79677005  34.51817330 19.75501440
484  484 1 0.60000000 13.79677005  34.51817330 27.27901440
485  485 1 0.60000000 11.49727005  38.50102414 4.70701440
486  486 1 0.60000000 11.49727005  38.50102414 12.23101440
487  487 1 0.60000000 11.49727005  38.50102414 19.75501440
488  488 1 0.60000000 11.49727005  38.50102414 27.27901440
489  489 1 0.60000000 9.19777005  42.48387497 4.70701440
490  490 1 0.60000000 9.19777005  42.48387497 12.23101440
491  491 1 0.60000000 9.19777005  42.48387497 19.75501440
492  492 1 0.60000000 9.19777005  42.48387497 27.27901440
493  493 1 0.60000000 6.89827005  46.46672580 4.70701440
494  494 1 0.60000000 6.89827005  46.46672580 12.23101440
495  495 1 0.60000000 6.89827005  46.46672580 19.75501440
496  496 1 0.60000000 6.89827005  46.46672580 27.27901440
497  497 1 0.60000000 4.59877004  50.44957663 4.70701440
498  498 1 0.60000000 4.59877004  50.44957663 12.23101440
499  499 1 0.60000000 4.59877004  50.44957663 19.75501440