
4800 atoms 
4 atom types 
0 bonds 
1 bond types 
0 angles 
1 angle types 

0.00000000 22.99500000 xlo xhi
0.00000000 39.82850000 ylo yhi
0.00000000 30.09600000 zlo zhi
0.00000000 0.00000000 0.00000000 xy xz yz

Masses 

1 107.868 
2 126.904 
3 15.9994 
4 1.008

Bond Coeffs # harmonic 

1 554.135 1 

Angle Coeffs # harmonic 

1 45.7696 109.47 

Atoms 

1  1 1 1.00000000 -0.00022995  2.65536665 4.70701440
2  2 1 1.00000000 -0.00022995  2.65536665 12.23101440
3  3 1 1.00000000 -0.00022995  2.65536665 19.75501440
4  4 1 1.00000000 -0.00022995  2.65536665 27.27901440
5  5 1 1.00000000 -2.29972995  6.63821748 4.70701440
6  6 1 1.00000000 -2.29972995  6.63821748 12.23101440
7  7 1 1.00000000 -2.29972995  6.63821748 19.75501440
8  8 1 1.00000000 -2.29972995  6.63821748 27.27901440
9  9 1 1.00000000 -4.59922995  10.62106831 4.70701440
10  10 1 1.00000000 -4.59922995  10.62106831 12.23101440
11  11 1 1.00000000 -4.59922995  10.62106831 19.75501440
12  12 1 1.00000000 -4.59922995  10.62106831 27.27901440
13  13 1 1.00000000 -6.89872995  14.60391915 4.70701440
14  14 1 1.00000000 -6.89872995  14.60391915 12.23101440
15  15 1 1.00000000 -6.89872995  14.60391915 19.75501440
16  16 1 1.00000000 -6.89872995  14.60391915 27.27901440
17  17 1 1.00000000 -9.19822995  18.58676998 4.70701440
18  18 1 1.00000000 -9.19822995  18.58676998 12.23101440
19  19 1 1.00000000 -9.19822995  18.58676998 19.75501440
20  20 1 1.00000000 -9.19822995  18.58676998 27.27901440
21  21 1 1.00000000 -11.49772995  22.56962081 4.70701440
22  22 1 1.00000000 -11.49772995  22.56962081 12.23101440
23  23 1 1.00000000 -11.49772995  22.56962081 19.75501440
24  24 1 1.00000000 -11.49772995  22.56962081 27.27901440
25  25 1 1.00000000 -13.79722995  26.55247164 4.70701440
26  26 1 1.00000000 -13.79722995  26.55247164 12.23101440
27  27 1 1.00000000 -13.79722995  26.55247164 19.75501440
28  28 1 1.00000000 -13.79722995  26.55247164 27.27901440
29  29 1 1.00000000 -16.09672995  30.53532247 4.70701440
30  30 1 1.00000000 -16.09672995  30.53532247 12.23101440
31  31 1 1.00000000 -16.09672995  30.53532247 19.75501440
32  32 1 1.00000000 -16.09672995  30.53532247 27.27901440
33  33 1 1.00000000 -18.39622995  34.51817330 4.70701440
34  34 1 1.00000000 -18.39622995  34.51817330 12.23101440
35  35 1 1.00000000 -18.39622995  34.51817330 19.75501440
36  36 1 1.00000000 -18.39622995  34.51817330 27.27901440
37  37 1 1.00000000 -20.69572995  38.50102414 4.70701440
38  38 1 1.00000000 -20.69572995  38.50102414 12.23101440
39  39 1 1.00000000 -20.69572995  38.50102414 19.75501440
40  40 1 1.00000000 -20.69572995  38.50102414 27.27901440
41  41 1 1.00000000 4.59877005  2.65536665 4.70701440
42  42 1 1.00000000 4.59877005  2.65536665 12.23101440
43  43 1 1.00000000 4.59877005  2.65536665 19.75501440
44  44 1 1.00000000 4.59877005  2.65536665 27.27901440
45  45 1 1.00000000 2.29927005  6.63821748 4.70701440
46  46 1 1.00000000 2.29927005  6.63821748 12.23101440
47  47 1 1.00000000 2.29927005  6.63821748 19.75501440
48  48 1 1.00000000 2.29927005  6.63821748 27.27901440
49  49 1 1.00000000 -0.00022995  10.62106831 4.70701440
50  50 1 1.00000000 -0.00022995  10.62106831 12.23101440
51  51 1 1.00000000 -0.00022995  10.62106831 19.75501440
52  52 1 1.00000000 -0.00022995  10.62106831 27.27901440
53  53 1 1.00000000 -2.29972995  14.60391915 4.70701440
54  54 1 1.00000000 -2.29972995  14.60391915 12.23101440
55  55 1 1.00000000 -2.29972995  14.60391915 19.75501440
56  56 1 1.00000000 -2.29972995  14.60391915 27.27901440
57  57 1 1.00000000 -4.59922995  18.58676998 4.70701440
58  58 1 1.00000000 -4.59922995  18.58676998 12.23101440
59  59 1 1.00000000 -4.59922995  18.58676998 19.75501440
60  60 1 1.00000000 -4.59922995  18.58676998 27.27901440
61  61 1 1.00000000 -6.89872995  22.56962081 4.70701440
62  62 1 1.00000000 -6.89872995  22.56962081 12.23101440
63  63 1 1.00000000 -6.89872995  22.56962081 19.75501440
64  64 1 1.00000000 -6.89872995  22.56962081 27.27901440
65  65 1 1.00000000 -9.19822995  26.55247164 4.70701440
66  66 1 1.00000000 -9.19822995  26.55247164 12.23101440
67  67 1 1.00000000 -9.19822995  26.55247164 19.75501440
68  68 1 1.00000000 -9.19822995  26.55247164 27.27901440
69  69 1 1.00000000 -11.49772995  30.53532247 4.70701440
70  70 1 1.00000000 -11.49772995  30.53532247 12.23101440
71  71 1 1.00000000 -11.49772995  30.53532247 19.75501440
72  72 1 1.00000000 -11.49772995  30.53532247 27.27901440
73  73 1 1.00000000 -13.79722995  34.51817330 4.70701440
74  74 1 1.00000000 -13.79722995  34.51817330 12.23101440
75  75 1 1.00000000 -13.79722995  34.51817330 19.75501440
76  76 1 1.00000000 -13.79722995  34.51817330 27.27901440
77  77 1 1.00000000 -16.09672995  38.50102414 4.70701440
78  78 1 1.00000000 -16.09672995  38.50102414 12.23101440
79  79 1 1.00000000 -16.09672995  38.50102414 19.75501440
80  80 1 1.00000000 -16.09672995  38.50102414 27.27901440
81  81 1 1.00000000 9.19777005  2.65536665 4.70701440
82  82 1 1.00000000 9.19777005  2.65536665 12.23101440
83  83 1 1.00000000 9.19777005  2.65536665 19.75501440
84  84 1 1.00000000 9.19777005  2.65536665 27.27901440
85  85 1 1.00000000 6.89827005  6.63821748 4.70701440
86  86 1 1.00000000 6.89827005  6.63821748 12.23101440
87  87 1 1.00000000 6.89827005  6.63821748 19.75501440
88  88 1 1.00000000 6.89827005  6.63821748 27.27901440
89  89 1 1.00000000 4.59877005  10.62106831 4.70701440
90  90 1 1.00000000 4.59877005  10.62106831 12.23101440
91  91 1 1.00000000 4.59877005  10.62106831 19.75501440
92  92 1 1.00000000 4.59877005  10.62106831 27.27901440
93  93 1 1.00000000 2.29927005  14.60391915 4.70701440
94  94 1 1.00000000 2.29927005  14.60391915 12.23101440
95  95 1 1.00000000 2.29927005  14.60391915 19.75501440
96  96 1 1.00000000 2.29927005  14.60391915 27.27901440
97  97 1 1.00000000 -0.00022995  18.58676998 4.70701440
98  98 1 1.00000000 -0.00022995  18.58676998 12.23101440
99  99 1 1.00000000 -0.00022995  18.58676998 19.75501440
100  100 1 1.00000000 -0.00022995  18.58676998 27.27901440
101  101 1 1.00000000 -2.29972995  22.56962081 4.70701440
102  102 1 1.00000000 -2.29972995  22.56962081 12.23101440
103  103 1 1.00000000 -2.29972995  22.56962081 19.75501440
104  104 1 1.00000000 -2.29972995  22.56962081 27.27901440
105  105 1 1.00000000 -4.59922995  26.55247164 4.70701440
106  106 1 1.00000000 -4.59922995  26.55247164 12.23101440
107  107 1 1.00000000 -4.59922995  26.55247164 19.75501440
108  108 1 1.00000000 -4.59922995  26.55247164 27.27901440
109  109 1 1.00000000 -6.89872995  30.53532247 4.70701440
110  110 1 1.00000000 -6.89872995  30.53532247 12.23101440
111  111 1 1.00000000 -6.89872995  30.53532247 19.75501440
112  112 1 1.00000000 -6.89872995  30.53532247 27.27901440
113  113 1 1.00000000 -9.19822995  34.51817330 4.70701440
114  114 1 1.00000000 -9.19822995  34.51817330 12.23101440
115  115 1 1.00000000 -9.19822995  34.51817330 19.75501440
116  116 1 1.00000000 -9.19822995  34.51817330 27.27901440
117  117 1 1.00000000 -11.49772995  38.50102414 4.70701440
118  118 1 1.00000000 -11.49772995  38.50102414 12.23101440
119  119 1 1.00000000 -11.49772995  38.50102414 19.75501440
120  120 1 1.00000000 -11.49772995  38.50102414 27.27901440
121  121 1 1.00000000 13.79677005  2.65536665 4.70701440
122  122 1 1.00000000 13.79677005  2.65536665 12.23101440
123  123 1 1.00000000 13.79677005  2.65536665 19.75501440
124  124 1 1.00000000 13.79677005  2.65536665 27.27901440
125  125 1 1.00000000 11.49727005  6.63821748 4.70701440
126  126 1 1.00000000 11.49727005  6.63821748 12.23101440
127  127 1 1.00000000 11.49727005  6.63821748 19.75501440
128  128 1 1.00000000 11.49727005  6.63821748 27.27901440
129  129 1 1.00000000 9.19777005  10.62106831 4.70701440
130  130 1 1.00000000 9.19777005  10.62106831 12.23101440
131  131 1 1.00000000 9.19777005  10.62106831 19.75501440
132  132 1 1.00000000 9.19777005  10.62106831 27.27901440
133  133 1 1.00000000 6.89827005  14.60391915 4.70701440
134  134 1 1.00000000 6.89827005  14.60391915 12.23101440
135  135 1 1.00000000 6.89827005  14.60391915 19.75501440
136  136 1 1.00000000 6.89827005  14.60391915 27.27901440
137  137 1 1.00000000 4.59877005  18.58676998 4.70701440
138  138 1 1.00000000 4.59877005  18.58676998 12.23101440
139  139 1 1.00000000 4.59877005  18.58676998 19.75501440
140  140 1 1.00000000 4.59877005  18.58676998 27.27901440
141  141 1 1.00000000 2.29927005  22.56962081 4.70701440
142  142 1 1.00000000 2.29927005  22.56962081 12.23101440
143  143 1 1.00000000 2.29927005  22.56962081 19.75501440
144  144 1 1.00000000 2.29927005  22.56962081 27.27901440
145  145 1 1.00000000 -0.00022995  26.55247164 4.70701440
146  146 1 1.00000000 -0.00022995  26.55247164 12.23101440
147  147 1 1.00000000 -0.00022995  26.55247164 19.75501440
148  148 1 1.00000000 -0.00022995  26.55247164 27.27901440
149  149 1 1.00000000 -2.29972995  30.53532247 4.70701440
150  150 1 1.00000000 -2.29972995  30.53532247 12.23101440
151  151 1 1.00000000 -2.29972995  30.53532247 19.75501440
152  152 1 1.00000000 -2.29972995  30.53532247 27.27901440
153  153 1 1.00000000 -4.59922995  34.51817330 4.70701440
154  154 1 1.00000000 -4.59922995  34.51817330 12.23101440
155  155 1 1.00000000 -4.59922995  34.51817330 19.75501440
156  156 1 1.00000000 -4.59922995  34.51817330 27.27901440
157  157 1 1.00000000 -6.89872995  38.50102414 4.70701440
158  158 1 1.00000000 -6.89872995  38.50102414 12.23101440
159  159 1 1.00000000 -6.89872995  38.50102414 19.75501440
160  160 1 1.00000000 -6.89872995  38.50102414 27.27901440
161  161 1 1.00000000 18.39577005  2.65536665 4.70701440
162  162 1 1.00000000 18.39577005  2.65536665 12.23101440
163  163 1 1.00000000 18.39577005  2.65536665 19.75501440
164  164 1 1.00000000 18.39577005  2.65536665 27.27901440
165  165 1 1.00000000 16.09627005  6.63821748 4.70701440
166  166 1 1.00000000 16.09627005  6.63821748 12.23101440
167  167 1 1.00000000 16.09627005  6.63821748 19.75501440
168  168 1 1.00000000 16.09627005  6.63821748 27.27901440
169  169 1 1.00000000 13.79677005  10.62106831 4.70701440
170  170 1 1.00000000 13.79677005  10.62106831 12.23101440
171  171 1 1.00000000 13.79677005  10.62106831 19.75501440
172  172 1 1.00000000 13.79677005  10.62106831 27.27901440
173  173 1 1.00000000 11.49727005  14.60391915 4.70701440
174  174 1 1.00000000 11.49727005  14.60391915 12.23101440
175  175 1 1.00000000 11.49727005  14.60391915 19.75501440
176  176 1 1.00000000 11.49727005  14.60391915 27.27901440
177  177 1 1.00000000 9.19777005  18.58676998 4.70701440
178  178 1 1.00000000 9.19777005  18.58676998 12.23101440
179  179 1 1.00000000 9.19777005  18.58676998 19.75501440
180  180 1 1.00000000 9.19777005  18.58676998 27.27901440
181  181 1 1.00000000 6.89827005  22.56962081 4.70701440
182  182 1 1.00000000 6.89827005  22.56962081 12.23101440
183  183 1 1.00000000 6.89827005  22.56962081 19.75501440
184  184 1 1.00000000 6.89827005  22.56962081 27.27901440
185  185 1 1.00000000 4.59877005  26.55247164 4.70701440
186  186 1 1.00000000 4.59877005  26.55247164 12.23101440
187  187 1 1.00000000 4.59877005  26.55247164 19.75501440
188  188 1 1.00000000 4.59877005  26.55247164 27.27901440
189  189 1 1.00000000 2.29927005  30.53532247 4.70701440
190  190 1 1.00000000 2.29927005  30.53532247 12.23101440
191  191 1 1.00000000 2.29927005  30.53532247 19.75501440
192  192 1 1.00000000 2.29927005  30.53532247 27.27901440
193  193 1 1.00000000 -0.00022995  34.51817330 4.70701440
194  194 1 1.00000000 -0.00022995  34.51817330 12.23101440
195  195 1 1.00000000 -0.00022995  34.51817330 19.75501440
196  196 1 1.00000000 -0.00022995  34.51817330 27.27901440
197  197 1 1.00000000 -2.29972995  38.50102414 4.70701440
198  198 1 1.00000000 -2.29972995  38.50102414 12.23101440
199  199 1 1.00000000 -2.29972995  38.50102414 19.75501440
200  200 1 1.00000000 -2.29972995  38.50102414 27.27901440
201  201 1 1.00000000 2.29972995  1.32748418 0.94501440
202  202 1 1.00000000 2.29972995  1.32748418 8.46901440
203  203 1 1.00000000 2.29972995  1.32748418 15.99301440
204  204 1 1.00000000 2.29972995  1.32748418 23.51701440
205  205 1 1.00000000 0.00022995  5.31033501 0.94501440
206  206 1 1.00000000 0.00022995  5.31033501 8.46901440
207  207 1 1.00000000 0.00022995  5.31033501 15.99301440
208  208 1 1.00000000 0.00022995  5.31033501 23.51701440
209  209 1 1.00000000 -2.29927005  9.29318585 0.94501440
210  210 1 1.00000000 -2.29927005  9.29318585 8.46901440
211  211 1 1.00000000 -2.29927005  9.29318585 15.99301440
212  212 1 1.00000000 -2.29927005  9.29318585 23.51701440
213  213 1 1.00000000 -4.59877005  13.27603668 0.94501440
214  214 1 1.00000000 -4.59877005  13.27603668 8.46901440
215  215 1 1.00000000 -4.59877005  13.27603668 15.99301440
216  216 1 1.00000000 -4.59877005  13.27603668 23.51701440
217  217 1 1.00000000 -6.89827005  17.25888751 0.94501440
218  218 1 1.00000000 -6.89827005  17.25888751 8.46901440
219  219 1 1.00000000 -6.89827005  17.25888751 15.99301440
220  220 1 1.00000000 -6.89827005  17.25888751 23.51701440
221  221 1 1.00000000 -9.19777005  21.24173834 0.94501440
222  222 1 1.00000000 -9.19777005  21.24173834 8.46901440
223  223 1 1.00000000 -9.19777005  21.24173834 15.99301440
224  224 1 1.00000000 -9.19777005  21.24173834 23.51701440
225  225 1 1.00000000 -11.49727005  25.22458917 0.94501440
226  226 1 1.00000000 -11.49727005  25.22458917 8.46901440
227  227 1 1.00000000 -11.49727005  25.22458917 15.99301440
228  228 1 1.00000000 -11.49727005  25.22458917 23.51701440
229  229 1 1.00000000 -13.79677005  29.20744000 0.94501440
230  230 1 1.00000000 -13.79677005  29.20744000 8.46901440
231  231 1 1.00000000 -13.79677005  29.20744000 15.99301440
232  232 1 1.00000000 -13.79677005  29.20744000 23.51701440
233  233 1 1.00000000 -16.09627005  33.19029084 0.94501440
234  234 1 1.00000000 -16.09627005  33.19029084 8.46901440
235  235 1 1.00000000 -16.09627005  33.19029084 15.99301440
236  236 1 1.00000000 -16.09627005  33.19029084 23.51701440
237  237 1 1.00000000 -18.39577005  37.17314167 0.94501440
238  238 1 1.00000000 -18.39577005  37.17314167 8.46901440
239  239 1 1.00000000 -18.39577005  37.17314167 15.99301440
240  240 1 1.00000000 -18.39577005  37.17314167 23.51701440
241  241 1 1.00000000 6.89872995  1.32748418 0.94501440
242  242 1 1.00000000 6.89872995  1.32748418 8.46901440
243  243 1 1.00000000 6.89872995  1.32748418 15.99301440
244  244 1 1.00000000 6.89872995  1.32748418 23.51701440
245  245 1 1.00000000 4.59922995  5.31033501 0.94501440
246  246 1 1.00000000 4.59922995  5.31033501 8.46901440
247  247 1 1.00000000 4.59922995  5.31033501 15.99301440
248  248 1 1.00000000 4.59922995  5.31033501 23.51701440
249  249 1 1.00000000 2.29972995  9.29318585 0.94501440
250  250 1 1.00000000 2.29972995  9.29318585 8.46901440
251  251 1 1.00000000 2.29972995  9.29318585 15.99301440
252  252 1 1.00000000 2.29972995  9.29318585 23.51701440
253  253 1 1.00000000 0.00022995  13.27603668 0.94501440
254  254 1 1.00000000 0.00022995  13.27603668 8.46901440
255  255 1 1.00000000 0.00022995  13.27603668 15.99301440
256  256 1 1.00000000 0.00022995  13.27603668 23.51701440
257  257 1 1.00000000 -2.29927005  17.25888751 0.94501440
258  258 1 1.00000000 -2.29927005  17.25888751 8.46901440
259  259 1 1.00000000 -2.29927005  17.25888751 15.99301440
260  260 1 1.00000000 -2.29927005  17.25888751 23.51701440
261  261 1 1.00000000 -4.59877005  21.24173834 0.94501440
262  262 1 1.00000000 -4.59877005  21.24173834 8.46901440
263  263 1 1.00000000 -4.59877005  21.24173834 15.99301440
264  264 1 1.00000000 -4.59877005  21.24173834 23.51701440
265  265 1 1.00000000 -6.89827005  25.22458917 0.94501440
266  266 1 1.00000000 -6.89827005  25.22458917 8.46901440
267  267 1 1.00000000 -6.89827005  25.22458917 15.99301440
268  268 1 1.00000000 -6.89827005  25.22458917 23.51701440
269  269 1 1.00000000 -9.19777005  29.20744000 0.94501440
270  270 1 1.00000000 -9.19777005  29.20744000 8.46901440
271  271 1 1.00000000 -9.19777005  29.20744000 15.99301440
272  272 1 1.00000000 -9.19777005  29.20744000 23.51701440
273  273 1 1.00000000 -11.49727005  33.19029084 0.94501440
274  274 1 1.00000000 -11.49727005  33.19029084 8.46901440
275  275 1 1.00000000 -11.49727005  33.19029084 15.99301440
276  276 1 1.00000000 -11.49727005  33.19029084 23.51701440
277  277 1 1.00000000 -13.79677005  37.17314167 0.94501440
278  278 1 1.00000000 -13.79677005  37.17314167 8.46901440
279  279 1 1.00000000 -13.79677005  37.17314167 15.99301440
280  280 1 1.00000000 -13.79677005  37.17314167 23.51701440
281  281 1 1.00000000 11.49772995  1.32748418 0.94501440
282  282 1 1.00000000 11.49772995  1.32748418 8.46901440
283  283 1 1.00000000 11.49772995  1.32748418 15.99301440
284  284 1 1.00000000 11.49772995  1.32748418 23.51701440
285  285 1 1.00000000 9.19822995  5.31033501 0.94501440
286  286 1 1.00000000 9.19822995  5.31033501 8.46901440
287  287 1 1.00000000 9.19822995  5.31033501 15.99301440
288  288 1 1.00000000 9.19822995  5.31033501 23.51701440
289  289 1 1.00000000 6.89872995  9.29318585 0.94501440
290  290 1 1.00000000 6.89872995  9.29318585 8.46901440
291  291 1 1.00000000 6.89872995  9.29318585 15.99301440
292  292 1 1.00000000 6.89872995  9.29318585 23.51701440
293  293 1 1.00000000 4.59922995  13.27603668 0.94501440
294  294 1 1.00000000 4.59922995  13.27603668 8.46901440
295  295 1 1.00000000 4.59922995  13.27603668 15.99301440
296  296 1 1.00000000 4.59922995  13.27603668 23.51701440
297  297 1 1.00000000 2.29972995  17.25888751 0.94501440
298  298 1 1.00000000 2.29972995  17.25888751 8.46901440
299  299 1 1.00000000 2.29972995  17.25888751 15.99301440
300  300 1 1.00000000 2.29972995  17.25888751 23.51701440
301  301 1 1.00000000 0.00022995  21.24173834 0.94501440
302  302 1 1.00000000 0.00022995  21.24173834 8.46901440
303  303 1 1.00000000 0.00022995  21.24173834 15.99301440
304  304 1 1.00000000 0.00022995  21.24173834 23.51701440
305  305 1 1.00000000 -2.29927005  25.22458917 0.94501440
306  306 1 1.00000000 -2.29927005  25.22458917 8.46901440
307  307 1 1.00000000 -2.29927005  25.22458917 15.99301440
308  308 1 1.00000000 -2.29927005  25.22458917 23.51701440
309  309 1 1.00000000 -4.59877005  29.20744000 0.94501440
310  310 1 1.00000000 -4.59877005  29.20744000 8.46901440
311  311 1 1.00000000 -4.59877005  29.20744000 15.99301440
312  312 1 1.00000000 -4.59877005  29.20744000 23.51701440
313  313 1 1.00000000 -6.89827005  33.19029084 0.94501440
314  314 1 1.00000000 -6.89827005  33.19029084 8.46901440
315  315 1 1.00000000 -6.89827005  33.19029084 15.99301440
316  316 1 1.00000000 -6.89827005  33.19029084 23.51701440
317  317 1 1.00000000 -9.19777005  37.17314167 0.94501440
318  318 1 1.00000000 -9.19777005  37.17314167 8.46901440
319  319 1 1.00000000 -9.19777005  37.17314167 15.99301440
320  320 1 1.00000000 -9.19777005  37.17314167 23.51701440
321  321 1 1.00000000 16.09672995  1.32748418 0.94501440
322  322 1 1.00000000 16.09672995  1.32748418 8.46901440
323  323 1 1.00000000 16.09672995  1.32748418 15.99301440
324  324 1 1.00000000 16.09672995  1.32748418 23.51701440
325  325 1 1.00000000 13.79722995  5.31033501 0.94501440
326  326 1 1.00000000 13.79722995  5.31033501 8.46901440
327  327 1 1.00000000 13.79722995  5.31033501 15.99301440
328  328 1 1.00000000 13.79722995  5.31033501 23.51701440
329  329 1 1.00000000 11.49772995  9.29318585 0.94501440
330  330 1 1.00000000 11.49772995  9.29318585 8.46901440
331  331 1 1.00000000 11.49772995  9.29318585 15.99301440
332  332 1 1.00000000 11.49772995  9.29318585 23.51701440
333  333 1 1.00000000 9.19822995  13.27603668 0.94501440
334  334 1 1.00000000 9.19822995  13.27603668 8.46901440
335  335 1 1.00000000 9.19822995  13.27603668 15.99301440
336  336 1 1.00000000 9.19822995  13.27603668 23.51701440
337  337 1 1.00000000 6.89872995  17.25888751 0.94501440
338  338 1 1.00000000 6.89872995  17.25888751 8.46901440
339  339 1 1.00000000 6.89872995  17.25888751 15.99301440
340  340 1 1.00000000 6.89872995  17.25888751 23.51701440
341  341 1 1.00000000 4.59922995  21.24173834 0.94501440
342  342 1 1.00000000 4.59922995  21.24173834 8.46901440
343  343 1 1.00000000 4.59922995  21.24173834 15.99301440
344  344 1 1.00000000 4.59922995  21.24173834 23.51701440
345  345 1 1.00000000 2.29972995  25.22458917 0.94501440
346  346 1 1.00000000 2.29972995  25.22458917 8.46901440
347  347 1 1.00000000 2.29972995  25.22458917 15.99301440
348  348 1 1.00000000 2.29972995  25.22458917 23.51701440
349  349 1 1.00000000 0.00022995  29.20744000 0.94501440
350  350 1 1.00000000 0.00022995  29.20744000 8.46901440
351  351 1 1.00000000 0.00022995  29.20744000 15.99301440
352  352 1 1.00000000 0.00022995  29.20744000 23.51701440
353  353 1 1.00000000 -2.29927005  33.19029084 0.94501440
354  354 1 1.00000000 -2.29927005  33.19029084 8.46901440
355  355 1 1.00000000 -2.29927005  33.19029084 15.99301440
356  356 1 1.00000000 -2.29927005  33.19029084 23.51701440
357  357 1 1.00000000 -4.59877005  37.17314167 0.94501440
358  358 1 1.00000000 -4.59877005  37.17314167 8.46901440
359  359 1 1.00000000 -4.59877005  37.17314167 15.99301440
360  360 1 1.00000000 -4.59877005  37.17314167 23.51701440
361  361 1 1.00000000 20.69572995  1.32748418 0.94501440
362  362 1 1.00000000 20.69572995  1.32748418 8.46901440
363  363 1 1.00000000 20.69572995  1.32748418 15.99301440
364  364 1 1.00000000 20.69572995  1.32748418 23.51701440
365  365 1 1.00000000 18.39622995  5.31033501 0.94501440
366  366 1 1.00000000 18.39622995  5.31033501 8.46901440
367  367 1 1.00000000 18.39622995  5.31033501 15.99301440
368  368 1 1.00000000 18.39622995  5.31033501 23.51701440
369  369 1 1.00000000 16.09672995  9.29318585 0.94501440
370  370 1 1.00000000 16.09672995  9.29318585 8.46901440
371  371 1 1.00000000 16.09672995  9.29318585 15.99301440
372  372 1 1.00000000 16.09672995  9.29318585 23.51701440
373  373 1 1.00000000 13.79722995  13.27603668 0.94501440
374  374 1 1.00000000 13.79722995  13.27603668 8.46901440
375  375 1 1.00000000 13.79722995  13.27603668 15.99301440
376  376 1 1.00000000 13.79722995  13.27603668 23.51701440
377  377 1 1.00000000 11.49772995  17.25888751 0.94501440
378  378 1 1.00000000 11.49772995  17.25888751 8.46901440
379  379 1 1.00000000 11.49772995  17.25888751 15.99301440
380  380 1 1.00000000 11.49772995  17.25888751 23.51701440
381  381 1 1.00000000 9.19822995  21.24173834 0.94501440
382  382 1 1.00000000 9.19822995  21.24173834 8.46901440
383  383 1 1.00000000 9.19822995  21.24173834 15.99301440
384  384 1 1.00000000 9.19822995  21.24173834 23.51701440
385  385 1 1.00000000 6.89872995  25.22458917 0.94501440
386  386 1 1.00000000 6.89872995  25.22458917 8.46901440
387  387 1 1.00000000 6.89872995  25.22458917 15.99301440
388  388 1 1.00000000 6.89872995  25.22458917 23.51701440
389  389 1 1.00000000 4.59922995  29.20744000 0.94501440
390  390 1 1.00000000 4.59922995  29.20744000 8.46901440
391  391 1 1.00000000 4.59922995  29.20744000 15.99301440
392  392 1 1.00000000 4.59922995  29.20744000 23.51701440
393  393 1 1.00000000 2.29972995  33.19029084 0.94501440
394  394 1 1.00000000 2.29972995  33.19029084 8.46901440
395  395 1 1.00000000 2.29972995  33.19029084 15.99301440
396  396 1 1.00000000 2.29972995  33.19029084 23.51701440
397  397 1 1.00000000 0.00022995  37.17314167 0.94501440
398  398 1 1.00000000 0.00022995  37.17314167 8.46901440
399  399 1 1.00000000 0.00022995  37.17314167 15.99301440
400  400 1 1.00000000 0.00022995  37.17314167 23.51701440
401  401 1 1.00000000 -0.00000000  2.65496836 4.70701440
402  402 1 1.00000000 -0.00000000  2.65496836 12.23101440
403  403 1 1.00000000 -0.00000000  2.65496836 19.75501440
404  404 1 1.00000000 -0.00000000  2.65496836 27.27901440
405  405 1 1.00000000 -2.29950000  6.63781920 4.70701440
406  406 1 1.00000000 -2.29950000  6.63781920 12.23101440
407  407 1 1.00000000 -2.29950000  6.63781920 19.75501440
408  408 1 1.00000000 -2.29950000  6.63781920 27.27901440
409  409 1 1.00000000 -4.59900000  10.62067003 4.70701440
410  410 1 1.00000000 -4.59900000  10.62067003 12.23101440
411  411 1 1.00000000 -4.59900000  10.62067003 19.75501440
412  412 1 1.00000000 -4.59900000  10.62067003 27.27901440
413  413 1 1.00000000 -6.89850000  14.60352086 4.70701440
414  414 1 1.00000000 -6.89850000  14.60352086 12.23101440
415  415 1 1.00000000 -6.89850000  14.60352086 19.75501440
416  416 1 1.00000000 -6.89850000  14.60352086 27.27901440
417  417 1 1.00000000 -9.19800000  18.58637169 4.70701440
418  418 1 1.00000000 -9.19800000  18.58637169 12.23101440
419  419 1 1.00000000 -9.19800000  18.58637169 19.75501440
420  420 1 1.00000000 -9.19800000  18.58637169 27.27901440
421  421 1 1.00000000 -11.49750000  22.56922252 4.70701440
422  422 1 1.00000000 -11.49750000  22.56922252 12.23101440
423  423 1 1.00000000 -11.49750000  22.56922252 19.75501440
424  424 1 1.00000000 -11.49750000  22.56922252 27.27901440
425  425 1 1.00000000 -13.79700000  26.55207336 4.70701440
426  426 1 1.00000000 -13.79700000  26.55207336 12.23101440
427  427 1 1.00000000 -13.79700000  26.55207336 19.75501440
428  428 1 1.00000000 -13.79700000  26.55207336 27.27901440
429  429 1 1.00000000 -16.09650000  30.53492419 4.70701440
430  430 1 1.00000000 -16.09650000  30.53492419 12.23101440
431  431 1 1.00000000 -16.09650000  30.53492419 19.75501440
432  432 1 1.00000000 -16.09650000  30.53492419 27.27901440
433  433 1 1.00000000 -18.39600000  34.51777502 4.70701440
434  434 1 1.00000000 -18.39600000  34.51777502 12.23101440
435  435 1 1.00000000 -18.39600000  34.51777502 19.75501440
436  436 1 1.00000000 -18.39600000  34.51777502 27.27901440
437  437 1 1.00000000 -20.69550000  38.50062585 4.70701440
438  438 1 1.00000000 -20.69550000  38.50062585 12.23101440
439  439 1 1.00000000 -20.69550000  38.50062585 19.75501440
440  440 1 1.00000000 -20.69550000  38.50062585 27.27901440
441  441 1 1.00000000 4.59900000  2.65496836 4.70701440
442  442 1 1.00000000 4.59900000  2.65496836 12.23101440
443  443 1 1.00000000 4.59900000  2.65496836 19.75501440
444  444 1 1.00000000 4.59900000  2.65496836 27.27901440
445  445 1 1.00000000 2.29950000  6.63781920 4.70701440
446  446 1 1.00000000 2.29950000  6.63781920 12.23101440
447  447 1 1.00000000 2.29950000  6.63781920 19.75501440
448  448 1 1.00000000 2.29950000  6.63781920 27.27901440
449  449 1 1.00000000 -0.00000000  10.62067003 4.70701440
450  450 1 1.00000000 -0.00000000  10.62067003 12.23101440
451  451 1 1.00000000 -0.00000000  10.62067003 19.75501440
452  452 1 1.00000000 -0.00000000  10.62067003 27.27901440
453  453 1 1.00000000 -2.29950000  14.60352086 4.70701440
454  454 1 1.00000000 -2.29950000  14.60352086 12.23101440
455  455 1 1.00000000 -2.29950000  14.60352086 19.75501440
456  456 1 1.00000000 -2.29950000  14.60352086 27.27901440
457  457 1 1.00000000 -4.59900000  18.58637169 4.70701440
458  458 1 1.00000000 -4.59900000  18.58637169 12.23101440
459  459 1 1.00000000 -4.59900000  18.58637169 19.75501440
460  460 1 1.00000000 -4.59900000  18.58637169 27.27901440
461  461 1 1.00000000 -6.89850000  22.56922252 4.70701440
462  462 1 1.00000000 -6.89850000  22.56922252 12.23101440
463  463 1 1.00000000 -6.89850000  22.56922252 19.75501440
464  464 1 1.00000000 -6.89850000  22.56922252 27.27901440
465  465 1 1.00000000 -9.19800000  26.55207336 4.70701440
466  466 1 1.00000000 -9.19800000  26.55207336 12.23101440
467  467 1 1.00000000 -9.19800000  26.55207336 19.75501440
468  468 1 1.00000000 -9.19800000  26.55207336 27.27901440
469  469 1 1.00000000 -11.49750000  30.53492419 4.70701440
470  470 1 1.00000000 -11.49750000  30.53492419 12.23101440
471  471 1 1.00000000 -11.49750000  30.53492419 19.75501440
472  472 1 1.00000000 -11.49750000  30.53492419 27.27901440
473  473 1 1.00000000 -13.79700000  34.51777502 4.70701440
474  474 1 1.00000000 -13.79700000  34.51777502 12.23101440
475  475 1 1.00000000 -13.79700000  34.51777502 19.75501440
476  476 1 1.00000000 -13.79700000  34.51777502 27.27901440
477  477 1 1.00000000 -16.09650000  38.50062585 4.70701440
478  478 1 1.00000000 -16.09650000  38.50062585 12.23101440
479  479 1 1.00000000 -16.09650000  38.50062585 19.75501440
480  480 1 1.00000000 -16.09650000  38.50062585 27.27901440
481  481 1 1.00000000 9.19800000  2.65496836 4.70701440
482  482 1 1.00000000 9.19800000  2.65496836 12.23101440
483  483 1 1.00000000 9.19800000  2.65496836 19.75501440
484  484 1 1.00000000 9.19800000  2.65496836 27.27901440
485  485 1 1.00000000 6.89850000  6.63781920 4.70701440
486  486 1 1.00000000 6.89850000  6.63781920 12.23101440
487  487 1 1.00000000 6.89850000  6.63781920 19.75501440
488  488 1 1.00000000 6.89850000  6.63781920 27.27901440
489  489 1 1.00000000 4.59900000  10.62067003 4.70701440
490  490 1 1.00000000 4.59900000  10.62067003 12.23101440
491  491 1 1.00000000 4.59900000  10.62067003 19.75501440
492  492 1 1.00000000 4.59900000  10.62067003 27.27901440
493  493 1 1.00000000 2.29950000  14.60352086 4.70701440
494  494 1 1.00000000 2.29950000  14.60352086 12.23101440
495  495 1 1.00000000 2.29950000  14.60352086 19.75501440
496  496 1 1.00000000 2.29950000  14.60352086 27.27901440
497  497 1 1.00000000 -0.00000000  18.58637169 4.70701440
498  498 1 1.00000000 -0.00000000  18.58637169 12.23101440
499  499 1 1.00000000 -0.00000000  18.58637169 19.75501440
500  500 1 1.00000000 -0.00000000  18.58637169 27.27901440
501  501 1 1.00000000 -2.29950000  22.56922252 4.70701440
502  502 1 1.00000000 -2.29950000  22.56922252 12.23101440
503  503 1 1.00000000 -2.29950000  22.56922252 19.75501440