********************************************************************************
*                       GENERAL UTILITY LATTICE PROGRAM                        *
*                                 Julian Gale                                  *
*                       Curtin Institute for Computation                       *
*                    School of Molecular and Life Sciences                     *
*                    Curtin University, Western Australia                      *
********************************************************************************
* Version = 6.1.2 * Last modified =   3rd November 2022                        *
********************************************************************************
*  single       - perform a single point run                                   *
*  conv         - constant volume calculation                                  *
*  noelectro    - do not include electrostatic terms despite charges present   *
*  qiterative   - use iterative solution of charges in ReaxFF / EEM / QEq      *
*  nosymmetry   - turn off symmetry after initial structure generation         *
*  full         - generate full unit cell when symmetry is removed             *
*  spatial      - use spatial decomposition algorithm                          *
********************************************************************************
* Preparing supercell for AgI (Hull, 1999)                                     *
********************************************************************************


  Job Started  at 20:06.32 24th October    2023                               

  Number of CPUs =     1

  Host name      = ip-172-31-18-205.ec2.internal           


  Total number of configurations input =      1

********************************************************************************
*  Input for Configuration =   1                                               *
********************************************************************************

  Formula = Mg3072O3072                                                 

  Number of irreducible atoms/shells =    6144


  Total number atoms/shells =    6144

  Dimensionality = 3               :  Bulk   



  Supercell dimensions :  x =   8  y =  16  z =   4

  Cartesian lattice vectors (Angstroms) :

       36.792000    0.000000    0.000000
      -36.792000   63.725613    0.000000
        0.000000    0.000000   30.096000

  Cell parameters (Angstroms/Degrees):

  a =      36.7920    alpha =  90.0000
  b =      73.5840    beta  =  90.0000
  c =      30.0960    gamma = 120.0000

  Initial cell volume =       70562.863850 Angs**3

  Temperature of configuration =   0.00     K 

  Pressure of configuration =         0.000 GPa 

  Fractional coordinates of asymmetric unit :

--------------------------------------------------------------------------------
   No.  Atomic       x           y          z         Charge      Occupancy
        Label      (Frac)      (Frac)     (Frac)        (e)         (Frac)  
--------------------------------------------------------------------------------
      1 Mg    c    0.041663    0.041669    0.156400     0.00000    1.000000    
      2 Mg    c    0.041663    0.041669    0.406400     0.00000    1.000000    
      3 Mg    c    0.041663    0.041669    0.656400     0.00000    1.000000    
      4 Mg    c    0.041663    0.041669    0.906400     0.00000    1.000000    
      5 Mg    c    0.041663    0.104169    0.156400     0.00000    1.000000    
      6 Mg    c    0.041663    0.104169    0.406400     0.00000    1.000000    
      7 Mg    c    0.041663    0.104169    0.656400     0.00000    1.000000    
      8 Mg    c    0.041663    0.104169    0.906400     0.00000    1.000000    
      9 Mg    c    0.041663    0.166669    0.156400     0.00000    1.000000    
     10 Mg    c    0.041663    0.166669    0.406400     0.00000    1.000000    
     11 Mg    c    0.041663    0.166669    0.656400     0.00000    1.000000    
     12 Mg    c    0.041663    0.166669    0.906400     0.00000    1.000000    
     13 Mg    c    0.041663    0.229169    0.156400     0.00000    1.000000    
     14 Mg    c    0.041663    0.229169    0.406400     0.00000    1.000000    
     15 Mg    c    0.041663    0.229169    0.656400     0.00000    1.000000    
     16 Mg    c    0.041663    0.229169    0.906400     0.00000    1.000000    
     17 Mg    c    0.041663    0.291669    0.156400     0.00000    1.000000    
     18 Mg    c    0.041663    0.291669    0.406400     0.00000    1.000000    
     19 Mg    c    0.041663    0.291669    0.656400     0.00000    1.000000    
     20 Mg    c    0.041663    0.291669    0.906400     0.00000    1.000000    
     21 Mg    c    0.041663    0.354169    0.156400     0.00000    1.000000    
     22 Mg    c    0.041663    0.354169    0.406400     0.00000    1.000000    
     23 Mg    c    0.041663    0.354169    0.656400     0.00000    1.000000    
     24 Mg    c    0.041663    0.354169    0.906400     0.00000    1.000000    
     25 Mg    c    0.041663    0.416669    0.156400     0.00000    1.000000    
     26 Mg    c    0.041663    0.416669    0.406400     0.00000    1.000000    
     27 Mg    c    0.041663    0.416669    0.656400     0.00000    1.000000    
     28 Mg    c    0.041663    0.416669    0.906400     0.00000    1.000000    
     29 Mg    c    0.041663    0.479169    0.156400     0.00000    1.000000    
     30 Mg    c    0.041663    0.479169    0.406400     0.00000    1.000000    
     31 Mg    c    0.041663    0.479169    0.656400     0.00000    1.000000    
     32 Mg    c    0.041663    0.479169    0.906400     0.00000    1.000000    
     33 Mg    c    0.041663    0.541669    0.156400     0.00000    1.000000    
     34 Mg    c    0.041663    0.541669    0.406400     0.00000    1.000000    
     35 Mg    c    0.041663    0.541669    0.656400     0.00000    1.000000    
     36 Mg    c    0.041663    0.541669    0.906400     0.00000    1.000000    
     37 Mg    c    0.041663    0.604169    0.156400     0.00000    1.000000    
     38 Mg    c    0.041663    0.604169    0.406400     0.00000    1.000000    
     39 Mg    c    0.041663    0.604169    0.656400     0.00000    1.000000    
     40 Mg    c    0.041663    0.604169    0.906400     0.00000    1.000000    
     41 Mg    c    0.041663    0.666669    0.156400     0.00000    1.000000    
     42 Mg    c    0.041663    0.666669    0.406400     0.00000    1.000000    
     43 Mg    c    0.041663    0.666669    0.656400     0.00000    1.000000    
     44 Mg    c    0.041663    0.666669    0.906400     0.00000    1.000000    
     45 Mg    c    0.041663    0.729169    0.156400     0.00000    1.000000    
     46 Mg    c    0.041663    0.729169    0.406400     0.00000    1.000000    
     47 Mg    c    0.041663    0.729169    0.656400     0.00000    1.000000    
     48 Mg    c    0.041663    0.729169    0.906400     0.00000    1.000000    
     49 Mg    c    0.041663    0.791669    0.156400     0.00000    1.000000    
     50 Mg    c    0.041663    0.791669    0.406400     0.00000    1.000000    
     51 Mg    c    0.041663    0.791669    0.656400     0.00000    1.000000    
     52 Mg    c    0.041663    0.791669    0.906400     0.00000    1.000000    
     53 Mg    c    0.041663    0.854169    0.156400     0.00000    1.000000    
     54 Mg    c    0.041663    0.854169    0.406400     0.00000    1.000000    
     55 Mg    c    0.041663    0.854169    0.656400     0.00000    1.000000    
     56 Mg    c    0.041663    0.854169    0.906400     0.00000    1.000000    
     57 Mg    c    0.041663    0.916669    0.156400     0.00000    1.000000    
     58 Mg    c    0.041663    0.916669    0.406400     0.00000    1.000000    
     59 Mg    c    0.041663    0.916669    0.656400     0.00000    1.000000    
     60 Mg    c    0.041663    0.916669    0.906400     0.00000    1.000000    
     61 Mg    c    0.041663    0.979169    0.156400     0.00000    1.000000    
     62 Mg    c    0.041663    0.979169    0.406400     0.00000    1.000000    
     63 Mg    c    0.041663    0.979169    0.656400     0.00000    1.000000    
     64 Mg    c    0.041663    0.979169    0.906400     0.00000    1.000000    
     65 Mg    c    0.166663    0.041669    0.156400     0.00000    1.000000    
     66 Mg    c    0.166663    0.041669    0.406400     0.00000    1.000000    
     67 Mg    c    0.166663    0.041669    0.656400     0.00000    1.000000    
     68 Mg    c    0.166663    0.041669    0.906400     0.00000    1.000000    
     69 Mg    c    0.166663    0.104169    0.156400     0.00000    1.000000    
     70 Mg    c    0.166663    0.104169    0.406400     0.00000    1.000000    
     71 Mg    c    0.166663    0.104169    0.656400     0.00000    1.000000    
     72 Mg    c    0.166663    0.104169    0.906400     0.00000    1.000000    
     73 Mg    c    0.166663    0.166669    0.156400     0.00000    1.000000    
     74 Mg    c    0.166663    0.166669    0.406400     0.00000    1.000000    
     75 Mg    c    0.166663    0.166669    0.656400     0.00000    1.000000    
     76 Mg    c    0.166663    0.166669    0.906400     0.00000    1.000000    
     77 Mg    c    0.166663    0.229169    0.156400     0.00000    1.000000    
     78 Mg    c    0.166663    0.229169    0.406400     0.00000    1.000000    
     79 Mg    c    0.166663    0.229169    0.656400     0.00000    1.000000    
     80 Mg    c    0.166663    0.229169    0.906400     0.00000    1.000000    
     81 Mg    c    0.166663    0.291669    0.156400     0.00000    1.000000    
     82 Mg    c    0.166663    0.291669    0.406400     0.00000    1.000000    
     83 Mg    c    0.166663    0.291669    0.656400     0.00000    1.000000    
     84 Mg    c    0.166663    0.291669    0.906400     0.00000    1.000000    
     85 Mg    c    0.166663    0.354169    0.156400     0.00000    1.000000    
     86 Mg    c    0.166663    0.354169    0.406400     0.00000    1.000000    
     87 Mg    c    0.166663    0.354169    0.656400     0.00000    1.000000    
     88 Mg    c    0.166663    0.354169    0.906400     0.00000    1.000000    
     89 Mg    c    0.166663    0.416669    0.156400     0.00000    1.000000    
     90 Mg    c    0.166663    0.416669    0.406400     0.00000    1.000000    
     91 Mg    c    0.166663    0.416669    0.656400     0.00000    1.000000    
     92 Mg    c    0.166663    0.416669    0.906400     0.00000    1.000000    
     93 Mg    c    0.166663    0.479169    0.156400     0.00000    1.000000    
     94 Mg    c    0.166663    0.479169    0.406400     0.00000    1.000000    
     95 Mg    c    0.166663    0.479169    0.656400     0.00000    1.000000    
     96 Mg    c    0.166663    0.479169    0.906400     0.00000    1.000000    
     97 Mg    c    0.166663    0.541669    0.156400     0.00000    1.000000    
     98 Mg    c    0.166663    0.541669    0.406400     0.00000    1.000000    
     99 Mg    c    0.166663    0.541669    0.656400     0.00000    1.000000    
    100 Mg    c    0.166663    0.541669    0.906400     0.00000    1.000000    
    101 Mg    c    0.166663    0.604169    0.156400     0.00000    1.000000    
    102 Mg    c    0.166663    0.604169    0.406400     0.00000    1.000000    
    103 Mg    c    0.166663    0.604169    0.656400     0.00000    1.000000    
    104 Mg    c    0.166663    0.604169    0.906400     0.00000    1.000000    
    105 Mg    c    0.166663    0.666669    0.156400     0.00000    1.000000    
    106 Mg    c    0.166663    0.666669    0.406400     0.00000    1.000000    
    107 Mg    c    0.166663    0.666669    0.656400     0.00000    1.000000    
    108 Mg    c    0.166663    0.666669    0.906400     0.00000    1.000000    
    109 Mg    c    0.166663    0.729169    0.156400     0.00000    1.000000    
    110 Mg    c    0.166663    0.729169    0.406400     0.00000    1.000000    
    111 Mg    c    0.166663    0.729169    0.656400     0.00000    1.000000    
    112 Mg    c    0.166663    0.729169    0.906400     0.00000    1.000000    
    113 Mg    c    0.166663    0.791669    0.156400     0.00000    1.000000    
    114 Mg    c    0.166663    0.791669    0.406400     0.00000    1.000000    
    115 Mg    c    0.166663    0.791669    0.656400     0.00000    1.000000    
    116 Mg    c    0.166663    0.791669    0.906400     0.00000    1.000000    
    117 Mg    c    0.166663    0.854169    0.156400     0.00000    1.000000    
    118 Mg    c    0.166663    0.854169    0.406400     0.00000    1.000000    
    119 Mg    c    0.166663    0.854169    0.656400     0.00000    1.000000    
    120 Mg    c    0.166663    0.854169    0.906400     0.00000    1.000000    
    121 Mg    c    0.166663    0.916669    0.156400     0.00000    1.000000    
    122 Mg    c    0.166663    0.916669    0.406400     0.00000    1.000000    
    123 Mg    c    0.166663    0.916669    0.656400     0.00000    1.000000    
    124 Mg    c    0.166663    0.916669    0.906400     0.00000    1.000000    
    125 Mg    c    0.166663    0.979169    0.156400     0.00000    1.000000    
    126 Mg    c    0.166663    0.979169    0.406400     0.00000    1.000000    
    127 Mg    c    0.166663    0.979169    0.656400     0.00000    1.000000    
    128 Mg    c    0.166663    0.979169    0.906400     0.00000    1.000000    
    129 Mg    c    0.291663    0.041669    0.156400     0.00000    1.000000    
    130 Mg    c    0.291663    0.041669    0.406400     0.00000    1.000000    
    131 Mg    c    0.291663    0.041669    0.656400     0.00000    1.000000    
    132 Mg    c    0.291663    0.041669    0.906400     0.00000    1.000000    
    133 Mg    c    0.291663    0.104169    0.156400     0.00000    1.000000    
    134 Mg    c    0.291663    0.104169    0.406400     0.00000    1.000000    
    135 Mg    c    0.291663    0.104169    0.656400     0.00000    1.000000    
    136 Mg    c    0.291663    0.104169    0.906400     0.00000    1.000000    
    137 Mg    c    0.291663    0.166669    0.156400     0.00000    1.000000    
    138 Mg    c    0.291663    0.166669    0.406400     0.00000    1.000000    
    139 Mg    c    0.291663    0.166669    0.656400     0.00000    1.000000    
    140 Mg    c    0.291663    0.166669    0.906400     0.00000    1.000000    
    141 Mg    c    0.291663    0.229169    0.156400     0.00000    1.000000    
    142 Mg    c    0.291663    0.229169    0.406400     0.00000    1.000000    
    143 Mg    c    0.291663    0.229169    0.656400     0.00000    1.000000    
    144 Mg    c    0.291663    0.229169    0.906400     0.00000    1.000000    
    145 Mg    c    0.291663    0.291669    0.156400     0.00000    1.000000    
    146 Mg    c    0.291663    0.291669    0.406400     0.00000    1.000000    
    147 Mg    c    0.291663    0.291669    0.656400     0.00000    1.000000    
    148 Mg    c    0.291663    0.291669    0.906400     0.00000    1.000000    
    149 Mg    c    0.291663    0.354169    0.156400     0.00000    1.000000    
    150 Mg    c    0.291663    0.354169    0.406400     0.00000    1.000000    
    151 Mg    c    0.291663    0.354169    0.656400     0.00000    1.000000    
    152 Mg    c    0.291663    0.354169    0.906400     0.00000    1.000000    
    153 Mg    c    0.291663    0.416669    0.156400     0.00000    1.000000    
    154 Mg    c    0.291663    0.416669    0.406400     0.00000    1.000000    
    155 Mg    c    0.291663    0.416669    0.656400     0.00000    1.000000    
    156 Mg    c    0.291663    0.416669    0.906400     0.00000    1.000000    
    157 Mg    c    0.291663    0.479169    0.156400     0.00000    1.000000    
    158 Mg    c    0.291663    0.479169    0.406400     0.00000    1.000000    
    159 Mg    c    0.291663    0.479169    0.656400     0.00000    1.000000    
    160 Mg    c    0.291663    0.479169    0.906400     0.00000    1.000000    
    161 Mg    c    0.291663    0.541669    0.156400     0.00000    1.000000    
    162 Mg    c    0.291663    0.541669    0.406400     0.00000    1.000000    
    163 Mg    c    0.291663    0.541669    0.656400     0.00000    1.000000    
    164 Mg    c    0.291663    0.541669    0.906400     0.00000    1.000000    
    165 Mg    c    0.291663    0.604169    0.156400     0.00000    1.000000    
    166 Mg    c    0.291663    0.604169    0.406400     0.00000    1.000000    
    167 Mg    c    0.291663    0.604169    0.656400     0.00000    1.000000    
    168 Mg    c    0.291663    0.604169    0.906400     0.00000    1.000000    
    169 Mg    c    0.291663    0.666669    0.156400     0.00000    1.000000    
    170 Mg    c    0.291663    0.666669    0.406400     0.00000    1.000000    
    171 Mg    c    0.291663    0.666669    0.656400     0.00000    1.000000    
    172 Mg    c    0.291663    0.666669    0.906400     0.00000    1.000000    
    173 Mg    c    0.291663    0.729169    0.156400     0.00000    1.000000    
    174 Mg    c    0.291663    0.729169    0.406400     0.00000    1.000000    
    175 Mg    c    0.291663    0.729169    0.656400     0.00000    1.000000    
    176 Mg    c    0.291663    0.729169    0.906400     0.00000    1.000000    
    177 Mg    c    0.291663    0.791669    0.156400     0.00000    1.000000    
    178 Mg    c    0.291663    0.791669    0.406400     0.00000    1.000000    
    179 Mg    c    0.291663    0.791669    0.656400     0.00000    1.000000    
    180 Mg    c    0.291663    0.791669    0.906400     0.00000    1.000000    
    181 Mg    c    0.291663    0.854169    0.156400     0.00000    1.000000    
    182 Mg    c    0.291663    0.854169    0.406400     0.00000    1.000000    
    183 Mg    c    0.291663    0.854169    0.656400     0.00000    1.000000    
    184 Mg    c    0.291663    0.854169    0.906400     0.00000    1.000000    
    185 Mg    c    0.291663    0.916669    0.156400     0.00000    1.000000    
    186 Mg    c    0.291663    0.916669    0.406400     0.00000    1.000000    
    187 Mg    c    0.291663    0.916669    0.656400     0.00000    1.000000    
    188 Mg    c    0.291663    0.916669    0.906400     0.00000    1.000000    
    189 Mg    c    0.291663    0.979169    0.156400     0.00000    1.000000    
    190 Mg    c    0.291663    0.979169    0.406400     0.00000    1.000000    
    191 Mg    c    0.291663    0.979169    0.656400     0.00000    1.000000    
    192 Mg    c    0.291663    0.979169    0.906400     0.00000    1.000000    
    193 Mg    c    0.416663    0.041669    0.156400     0.00000    1.000000    
    194 Mg    c    0.416663    0.041669    0.406400     0.00000    1.000000    
    195 Mg    c    0.416663    0.041669    0.656400     0.00000    1.000000    
    196 Mg    c    0.416663    0.041669    0.906400     0.00000    1.000000    
    197 Mg    c    0.416663    0.104169    0.156400     0.00000    1.000000    
    198 Mg    c    0.416663    0.104169    0.406400     0.00000    1.000000    
    199 Mg    c    0.416663    0.104169    0.656400     0.00000    1.000000    
    200 Mg    c    0.416663    0.104169    0.906400     0.00000    1.000000    
    201 Mg    c    0.416663    0.166669    0.156400     0.00000    1.000000    
    202 Mg    c    0.416663    0.166669    0.406400     0.00000    1.000000    
    203 Mg    c    0.416663    0.166669    0.656400     0.00000    1.000000    
    204 Mg    c    0.416663    0.166669    0.906400     0.00000    1.000000    
    205 Mg    c    0.416663    0.229169    0.156400     0.00000    1.000000    
    206 Mg    c    0.416663    0.229169    0.406400     0.00000    1.000000    
    207 Mg    c    0.416663    0.229169    0.656400     0.00000    1.000000    
    208 Mg    c    0.416663    0.229169    0.906400     0.00000    1.000000    
    209 Mg    c    0.416663    0.291669    0.156400     0.00000    1.000000    
    210 Mg    c    0.416663    0.291669    0.406400     0.00000    1.000000    
    211 Mg    c    0.416663    0.291669    0.656400     0.00000    1.000000    
    212 Mg    c    0.416663    0.291669    0.906400     0.00000    1.000000    
    213 Mg    c    0.416663    0.354169    0.156400     0.00000    1.000000    
    214 Mg    c    0.416663    0.354169    0.406400     0.00000    1.000000    
    215 Mg    c    0.416663    0.354169    0.656400     0.00000    1.000000    
    216 Mg    c    0.416663    0.354169    0.906400     0.00000    1.000000    
    217 Mg    c    0.416663    0.416669    0.156400     0.00000    1.000000    
    218 Mg    c    0.416663    0.416669    0.406400     0.00000    1.000000    
    219 Mg    c    0.416663    0.416669    0.656400     0.00000    1.000000    
    220 Mg    c    0.416663    0.416669    0.906400     0.00000    1.000000    
    221 Mg    c    0.416663    0.479169    0.156400     0.00000    1.000000    
    222 Mg    c    0.416663    0.479169    0.406400     0.00000    1.000000    
    223 Mg    c    0.416663    0.479169    0.656400     0.00000    1.000000    
    224 Mg    c    0.416663    0.479169    0.906400     0.00000    1.000000    
    225 Mg    c    0.416663    0.541669    0.156400     0.00000    1.000000    
    226 Mg    c    0.416663    0.541669    0.406400     0.00000    1.000000    
    227 Mg    c    0.416663    0.541669    0.656400     0.00000    1.000000    
    228 Mg    c    0.416663    0.541669    0.906400     0.00000    1.000000    
    229 Mg    c    0.416663    0.604169    0.156400     0.00000    1.000000    
    230 Mg    c    0.416663    0.604169    0.406400     0.00000    1.000000    
    231 Mg    c    0.416663    0.604169    0.656400     0.00000    1.000000    
    232 Mg    c    0.416663    0.604169    0.906400     0.00000    1.000000    
    233 Mg    c    0.416663    0.666669    0.156400     0.00000    1.000000    
    234 Mg    c    0.416663    0.666669    0.406400     0.00000    1.000000    
    235 Mg    c    0.416663    0.666669    0.656400     0.00000    1.000000    
    236 Mg    c    0.416663    0.666669    0.906400     0.00000    1.000000    
    237 Mg    c    0.416663    0.729169    0.156400     0.00000    1.000000    
    238 Mg    c    0.416663    0.729169    0.406400     0.00000    1.000000    
    239 Mg    c    0.416663    0.729169    0.656400     0.00000    1.000000    
    240 Mg    c    0.416663    0.729169    0.906400     0.00000    1.000000    
    241 Mg    c    0.416663    0.791669    0.156400     0.00000    1.000000    
    242 Mg    c    0.416663    0.791669    0.406400     0.00000    1.000000    
    243 Mg    c    0.416663    0.791669    0.656400     0.00000    1.000000    
    244 Mg    c    0.416663    0.791669    0.906400     0.00000    1.000000    
    245 Mg    c    0.416663    0.854169    0.156400     0.00000    1.000000    
    246 Mg    c    0.416663    0.854169    0.406400     0.00000    1.000000    
    247 Mg    c    0.416663    0.854169    0.656400     0.00000    1.000000    
    248 Mg    c    0.416663    0.854169    0.906400     0.00000    1.000000    
    249 Mg    c    0.416663    0.916669    0.156400     0.00000    1.000000    
    250 Mg    c    0.416663    0.916669    0.406400     0.00000    1.000000    
    251 Mg    c    0.416663    0.916669    0.656400     0.00000    1.000000    
    252 Mg    c    0.416663    0.916669    0.906400     0.00000    1.000000    
    253 Mg    c    0.416663    0.979169    0.156400     0.00000    1.000000    
    254 Mg    c    0.416663    0.979169    0.406400     0.00000    1.000000    
    255 Mg    c    0.416663    0.979169    0.656400     0.00000    1.000000    
    256 Mg    c    0.416663    0.979169    0.906400     0.00000    1.000000    
    257 Mg    c    0.541663    0.041669    0.156400     0.00000    1.000000    
    258 Mg    c    0.541663    0.041669    0.406400     0.00000    1.000000    
    259 Mg    c    0.541663    0.041669    0.656400     0.00000    1.000000    
    260 Mg    c    0.541663    0.041669    0.906400     0.00000    1.000000    
    261 Mg    c    0.541663    0.104169    0.156400     0.00000    1.000000    
    262 Mg    c    0.541663    0.104169    0.406400     0.00000    1.000000    
    263 Mg    c    0.541663    0.104169    0.656400     0.00000    1.000000    
    264 Mg    c    0.541663    0.104169    0.906400     0.00000    1.000000    
    265 Mg    c    0.541663    0.166669    0.156400     0.00000    1.000000    
    266 Mg    c    0.541663    0.166669    0.406400     0.00000    1.000000    
    267 Mg    c    0.541663    0.166669    0.656400     0.00000    1.000000    
    268 Mg    c    0.541663    0.166669    0.906400     0.00000    1.000000    
    269 Mg    c    0.541663    0.229169    0.156400     0.00000    1.000000    
    270 Mg    c    0.541663    0.229169    0.406400     0.00000    1.000000    
    271 Mg    c    0.541663    0.229169    0.656400     0.00000    1.000000    
    272 Mg    c    0.541663    0.229169    0.906400     0.00000    1.000000    
    273 Mg    c    0.541663    0.291669    0.156400     0.00000    1.000000    
    274 Mg    c    0.541663    0.291669    0.406400     0.00000    1.000000    
    275 Mg    c    0.541663    0.291669    0.656400     0.00000    1.000000    
    276 Mg    c    0.541663    0.291669    0.906400     0.00000    1.000000    
    277 Mg    c    0.541663    0.354169    0.156400     0.00000    1.000000    
    278 Mg    c    0.541663    0.354169    0.406400     0.00000    1.000000    
    279 Mg    c    0.541663    0.354169    0.656400     0.00000    1.000000    
    280 Mg    c    0.541663    0.354169    0.906400     0.00000    1.000000    
    281 Mg    c    0.541663    0.416669    0.156400     0.00000    1.000000    
    282 Mg    c    0.541663    0.416669    0.406400     0.00000    1.000000    
    283 Mg    c    0.541663    0.416669    0.656400     0.00000    1.000000    
    284 Mg    c    0.541663    0.416669    0.906400     0.00000    1.000000    
    285 Mg    c    0.541663    0.479169    0.156400     0.00000    1.000000    
    286 Mg    c    0.541663    0.479169    0.406400     0.00000    1.000000    
    287 Mg    c    0.541663    0.479169    0.656400     0.00000    1.000000    
    288 Mg    c    0.541663    0.479169    0.906400     0.00000    1.000000    
    289 Mg    c    0.541663    0.541669    0.156400     0.00000    1.000000    
    290 Mg    c    0.541663    0.541669    0.406400     0.00000    1.000000    
    291 Mg    c    0.541663    0.541669    0.656400     0.00000    1.000000    
    292 Mg    c    0.541663    0.541669    0.906400     0.00000    1.000000    
    293 Mg    c    0.541663    0.604169    0.156400     0.00000    1.000000    
    294 Mg    c    0.541663    0.604169    0.406400     0.00000    1.000000    
    295 Mg    c    0.541663    0.604169    0.656400     0.00000    1.000000    
    296 Mg    c    0.541663    0.604169    0.906400     0.00000    1.000000    
    297 Mg    c    0.541663    0.666669    0.156400     0.00000    1.000000    
    298 Mg    c    0.541663    0.666669    0.406400     0.00000    1.000000    
    299 Mg    c    0.541663    0.666669    0.656400     0.00000    1.000000    
    300 Mg    c    0.541663    0.666669    0.906400     0.00000    1.000000    
    301 Mg    c    0.541663    0.729169    0.156400     0.00000    1.000000    
    302 Mg    c    0.541663    0.729169    0.406400     0.00000    1.000000    
    303 Mg    c    0.541663    0.729169    0.656400     0.00000    1.000000    
    304 Mg    c    0.541663    0.729169    0.906400     0.00000    1.000000    
    305 Mg    c    0.541663    0.791669    0.156400     0.00000    1.000000    
    306 Mg    c    0.541663    0.791669    0.406400     0.00000    1.000000    
    307 Mg    c    0.541663    0.791669    0.656400     0.00000    1.000000    
    308 Mg    c    0.541663    0.791669    0.906400     0.00000    1.000000    
    309 Mg    c    0.541663    0.854169    0.156400     0.00000    1.000000    
    310 Mg    c    0.541663    0.854169    0.406400     0.00000    1.000000    
    311 Mg    c    0.541663    0.854169    0.656400     0.00000    1.000000    
    312 Mg    c    0.541663    0.854169    0.906400     0.00000    1.000000    
    313 Mg    c    0.541663    0.916669    0.156400     0.00000    1.000000    
    314 Mg    c    0.541663    0.916669    0.406400     0.00000    1.000000    
    315 Mg    c    0.541663    0.916669    0.656400     0.00000    1.000000    
    316 Mg    c    0.541663    0.916669    0.906400     0.00000    1.000000    
    317 Mg    c    0.541663    0.979169    0.156400     0.00000    1.000000    
    318 Mg    c    0.541663    0.979169    0.406400     0.00000    1.000000    
    319 Mg    c    0.541663    0.979169    0.656400     0.00000    1.000000    
    320 Mg    c    0.541663    0.979169    0.906400     0.00000    1.000000    
    321 Mg    c    0.666663    0.041669    0.156400     0.00000    1.000000    
    322 Mg    c    0.666663    0.041669    0.406400     0.00000    1.000000    
    323 Mg    c    0.666663    0.041669    0.656400     0.00000    1.000000    
    324 Mg    c    0.666663    0.041669    0.906400     0.00000    1.000000    
    325 Mg    c    0.666663    0.104169    0.156400     0.00000    1.000000    
    326 Mg    c    0.666663    0.104169    0.406400     0.00000    1.000000    
    327 Mg    c    0.666663    0.104169    0.656400     0.00000    1.000000    
    328 Mg    c    0.666663    0.104169    0.906400     0.00000    1.000000    
    329 Mg    c    0.666663    0.166669    0.156400     0.00000    1.000000    
    330 Mg    c    0.666663    0.166669    0.406400     0.00000    1.000000    
    331 Mg    c    0.666663    0.166669    0.656400     0.00000    1.000000    
    332 Mg    c    0.666663    0.166669    0.906400     0.00000    1.000000    
    333 Mg    c    0.666663    0.229169    0.156400     0.00000    1.000000    
    334 Mg    c    0.666663    0.229169    0.406400     0.00000    1.000000    
    335 Mg    c    0.666663    0.229169    0.656400     0.00000    1.000000    
    336 Mg    c    0.666663    0.229169    0.906400     0.00000    1.000000    
    337 Mg    c    0.666663    0.291669    0.156400     0.00000    1.000000    
    338 Mg    c    0.666663    0.291669    0.406400     0.00000    1.000000    
    339 Mg    c    0.666663    0.291669    0.656400     0.00000    1.000000    
    340 Mg    c    0.666663    0.291669    0.906400     0.00000    1.000000    
    341 Mg    c    0.666663    0.354169    0.156400     0.00000    1.000000    
    342 Mg    c    0.666663    0.354169    0.406400     0.00000    1.000000    
    343 Mg    c    0.666663    0.354169    0.656400     0.00000    1.000000    
    344 Mg    c    0.666663    0.354169    0.906400     0.00000    1.000000    
    345 Mg    c    0.666663    0.416669    0.156400     0.00000    1.000000    
    346 Mg    c    0.666663    0.416669    0.406400     0.00000    1.000000    
    347 Mg    c    0.666663    0.416669    0.656400     0.00000    1.000000    
    348 Mg    c    0.666663    0.416669    0.906400     0.00000    1.000000    
    349 Mg    c    0.666663    0.479169    0.156400     0.00000    1.000000    
    350 Mg    c    0.666663    0.479169    0.406400     0.00000    1.000000    
    351 Mg    c    0.666663    0.479169    0.656400     0.00000    1.000000    
    352 Mg    c    0.666663    0.479169    0.906400     0.00000    1.000000    
    353 Mg    c    0.666663    0.541669    0.156400     0.00000    1.000000    
    354 Mg    c    0.666663    0.541669    0.406400     0.00000    1.000000    
    355 Mg    c    0.666663    0.541669    0.656400     0.00000    1.000000    
    356 Mg    c    0.666663    0.541669    0.906400     0.00000    1.000000    
    357 Mg    c    0.666663    0.604169    0.156400     0.00000    1.000000    
    358 Mg    c    0.666663    0.604169    0.406400     0.00000    1.000000    
    359 Mg    c    0.666663    0.604169    0.656400     0.00000    1.000000    
    360 Mg    c    0.666663    0.604169    0.906400     0.00000    1.000000    
    361 Mg    c    0.666663    0.666669    0.156400     0.00000    1.000000    
    362 Mg    c    0.666663    0.666669    0.406400     0.00000    1.000000    
    363 Mg    c    0.666663    0.666669    0.656400     0.00000    1.000000    
    364 Mg    c    0.666663    0.666669    0.906400     0.00000    1.000000    
    365 Mg    c    0.666663    0.729169    0.156400     0.00000    1.000000    
    366 Mg    c    0.666663    0.729169    0.406400     0.00000    1.000000    
    367 Mg    c    0.666663    0.729169    0.656400     0.00000    1.000000    
    368 Mg    c    0.666663    0.729169    0.906400     0.00000    1.000000    
    369 Mg    c    0.666663    0.791669    0.156400     0.00000    1.000000    
    370 Mg    c    0.666663    0.791669    0.406400     0.00000    1.000000    
    371 Mg    c    0.666663    0.791669    0.656400     0.00000    1.000000    
    372 Mg    c    0.666663    0.791669    0.906400     0.00000    1.000000    
    373 Mg    c    0.666663    0.854169    0.156400     0.00000    1.000000    
    374 Mg    c    0.666663    0.854169    0.406400     0.00000    1.000000    
    375 Mg    c    0.666663    0.854169    0.656400     0.00000    1.000000    
    376 Mg    c    0.666663    0.854169    0.906400     0.00000    1.000000    
    377 Mg    c    0.666663    0.916669    0.156400     0.00000    1.000000    
    378 Mg    c    0.666663    0.916669    0.406400     0.00000    1.000000    
    379 Mg    c    0.666663    0.916669    0.656400     0.00000    1.000000    
    380 Mg    c    0.666663    0.916669    0.906400     0.00000    1.000000    
    381 Mg    c    0.666663    0.979169    0.156400     0.00000    1.000000    
    382 Mg    c    0.666663    0.979169    0.406400     0.00000    1.000000    
    383 Mg    c    0.666663    0.979169    0.656400     0.00000    1.000000    
    384 Mg    c    0.666663    0.979169    0.906400     0.00000    1.000000    
    385 Mg    c    0.791663    0.041669    0.156400     0.00000    1.000000    
    386 Mg    c    0.791663    0.041669    0.406400     0.00000    1.000000    
    387 Mg    c    0.791663    0.041669    0.656400     0.00000    1.000000    
    388 Mg    c    0.791663    0.041669    0.906400     0.00000    1.000000    
    389 Mg    c    0.791663    0.104169    0.156400     0.00000    1.000000    
    390 Mg    c    0.791663    0.104169    0.406400     0.00000    1.000000    
    391 Mg    c    0.791663    0.104169    0.656400     0.00000    1.000000    
    392 Mg    c    0.791663    0.104169    0.906400     0.00000    1.000000    
    393 Mg    c    0.791663    0.166669    0.156400     0.00000    1.000000    
    394 Mg    c    0.791663    0.166669    0.406400     0.00000    1.000000    
    395 Mg    c    0.791663    0.166669    0.656400     0.00000    1.000000    
    396 Mg    c    0.791663    0.166669    0.906400     0.00000    1.000000    
    397 Mg    c    0.791663    0.229169    0.156400     0.00000    1.000000    
    398 Mg    c    0.791663    0.229169    0.406400     0.00000    1.000000    
    399 Mg    c    0.791663    0.229169    0.656400     0.00000    1.000000    
    400 Mg    c    0.791663    0.229169    0.906400     0.00000    1.000000    
    401 Mg    c    0.791663    0.291669    0.156400     0.00000    1.000000    
    402 Mg    c    0.791663    0.291669    0.406400     0.00000    1.000000    
    403 Mg    c    0.791663    0.291669    0.656400     0.00000    1.000000    
    404 Mg    c    0.791663    0.291669    0.906400     0.00000    1.000000    
    405 Mg    c    0.791663    0.354169    0.156400     0.00000    1.000000    
    406 Mg    c    0.791663    0.354169    0.406400     0.00000    1.000000    
    407 Mg    c    0.791663    0.354169    0.656400     0.00000    1.000000    
    408 Mg    c    0.791663    0.354169    0.906400     0.00000    1.000000    
    409 Mg    c    0.791663    0.416669    0.156400     0.00000    1.000000    
    410 Mg    c    0.791663    0.416669    0.406400     0.00000    1.000000    
    411 Mg    c    0.791663    0.416669    0.656400     0.00000    1.000000    
    412 Mg    c    0.791663    0.416669    0.906400     0.00000    1.000000    
    413 Mg    c    0.791663    0.479169    0.156400     0.00000    1.000000    
    414 Mg    c    0.791663    0.479169    0.406400     0.00000    1.000000    
    415 Mg    c    0.791663    0.479169    0.656400     0.00000    1.000000    
    416 Mg    c    0.791663    0.479169    0.906400     0.00000    1.000000    
    417 Mg    c    0.791663    0.541669    0.156400     0.00000    1.000000    
    418 Mg    c    0.791663    0.541669    0.406400     0.00000    1.000000    
    419 Mg    c    0.791663    0.541669    0.656400     0.00000    1.000000    
    420 Mg    c    0.791663    0.541669    0.906400     0.00000    1.000000    
    421 Mg    c    0.791663    0.604169    0.156400     0.00000    1.000000    
    422 Mg    c    0.791663    0.604169    0.406400     0.00000    1.000000    
    423 Mg    c    0.791663    0.604169    0.656400     0.00000    1.000000    
    424 Mg    c    0.791663    0.604169    0.906400     0.00000    1.000000    
    425 Mg    c    0.791663    0.666669    0.156400     0.00000    1.000000    
    426 Mg    c    0.791663    0.666669    0.406400     0.00000    1.000000    
    427 Mg    c    0.791663    0.666669    0.656400     0.00000    1.000000    
    428 Mg    c    0.791663    0.666669    0.906400     0.00000    1.000000    
    429 Mg    c    0.791663    0.729169    0.156400     0.00000    1.000000    
    430 Mg    c    0.791663    0.729169    0.406400     0.00000    1.000000    
    431 Mg    c    0.791663    0.729169    0.656400     0.00000    1.000000    
    432 Mg    c    0.791663    0.729169    0.906400     0.00000    1.000000    
    433 Mg    c    0.791663    0.791669    0.156400     0.00000    1.000000    
    434 Mg    c    0.791663    0.791669    0.406400     0.00000    1.000000    
    435 Mg    c    0.791663    0.791669    0.656400     0.00000    1.000000    
    436 Mg    c    0.791663    0.791669    0.906400     0.00000    1.000000    
    437 Mg    c    0.791663    0.854169    0.156400     0.00000    1.000000    
    438 Mg    c    0.791663    0.854169    0.406400     0.00000    1.000000    
    439 Mg    c    0.791663    0.854169    0.656400     0.00000    1.000000    
    440 Mg    c    0.791663    0.854169    0.906400     0.00000    1.000000    
    441 Mg    c    0.791663    0.916669    0.156400     0.00000    1.000000    
    442 Mg    c    0.791663    0.916669    0.406400     0.00000    1.000000    
    443 Mg    c    0.791663    0.916669    0.656400     0.00000    1.000000    
    444 Mg    c    0.791663    0.916669    0.906400     0.00000    1.000000    
    445 Mg    c    0.791663    0.979169    0.156400     0.00000    1.000000    
    446 Mg    c    0.791663    0.979169    0.406400     0.00000    1.000000    
    447 Mg    c    0.791663    0.979169    0.656400     0.00000    1.000000    
    448 Mg    c    0.791663    0.979169    0.906400     0.00000    1.000000    
    449 Mg    c    0.916663    0.041669    0.156400     0.00000    1.000000    
    450 Mg    c    0.916663    0.041669    0.406400     0.00000    1.000000    
    451 Mg    c    0.916663    0.041669    0.656400     0.00000    1.000000    
    452 Mg    c    0.916663    0.041669    0.906400     0.00000    1.000000    
    453 Mg    c    0.916663    0.104169    0.156400     0.00000    1.000000    
    454 Mg    c    0.916663    0.104169    0.406400     0.00000    1.000000    
    455 Mg    c    0.916663    0.104169    0.656400     0.00000    1.000000    
    456 Mg    c    0.916663    0.104169    0.906400     0.00000    1.000000    
    457 Mg    c    0.916663    0.166669    0.156400     0.00000    1.000000    
    458 Mg    c    0.916663    0.166669    0.406400     0.00000    1.000000    
    459 Mg    c    0.916663    0.166669    0.656400     0.00000    1.000000    
    460 Mg    c    0.916663    0.166669    0.906400     0.00000    1.000000    
    461 Mg    c    0.916663    0.229169    0.156400     0.00000    1.000000    
    462 Mg    c    0.916663    0.229169    0.406400     0.00000    1.000000    
    463 Mg    c    0.916663    0.229169    0.656400     0.00000    1.000000    
    464 Mg    c    0.916663    0.229169    0.906400     0.00000    1.000000    
    465 Mg    c    0.916663    0.291669    0.156400     0.00000    1.000000    
    466 Mg    c    0.916663    0.291669    0.406400     0.00000    1.000000    
    467 Mg    c    0.916663    0.291669    0.656400     0.00000    1.000000    
    468 Mg    c    0.916663    0.291669    0.906400     0.00000    1.000000    
    469 Mg    c    0.916663    0.354169    0.156400     0.00000    1.000000    
    470 Mg    c    0.916663    0.354169    0.406400     0.00000    1.000000    
    471 Mg    c    0.916663    0.354169    0.656400     0.00000    1.000000    
    472 Mg    c    0.916663    0.354169    0.906400     0.00000    1.000000    
    473 Mg    c    0.916663    0.416669    0.156400     0.00000    1.000000    
    474 Mg    c    0.916663    0.416669    0.406400     0.00000    1.000000    
    475 Mg    c    0.916663    0.416669    0.656400     0.00000    1.000000    
    476 Mg    c    0.916663    0.416669    0.906400     0.00000    1.000000    
    477 Mg    c    0.916663    0.479169    0.156400     0.00000    1.000000    
    478 Mg    c    0.916663    0.479169    0.406400     0.00000    1.000000    
    479 Mg    c    0.916663    0.479169    0.656400     0.00000    1.000000    
    480 Mg    c    0.916663    0.479169    0.906400     0.00000    1.000000    
    481 Mg    c    0.916663    0.541669    0.156400     0.00000    1.000000    
    482 Mg    c    0.916663    0.541669    0.406400     0.00000    1.000000    
    483 Mg    c    0.916663    0.541669    0.656400     0.00000    1.000000    
    484 Mg    c    0.916663    0.541669    0.906400     0.00000    1.000000    
    485 Mg    c    0.916663    0.604169    0.156400     0.00000    1.000000    
    486 Mg    c    0.916663    0.604169    0.406400     0.00000    1.000000    
    487 Mg    c    0.916663    0.604169    0.656400     0.00000    1.000000    
    488 Mg    c    0.916663    0.604169    0.906400     0.00000    1.000000    
    489 Mg    c    0.916663    0.666669    0.156400     0.00000    1.000000    
    490 Mg    c    0.916663    0.666669    0.406400     0.00000    1.000000    
    491 Mg    c    0.916663    0.666669    0.656400     0.00000    1.000000    
    492 Mg    c    0.916663    0.666669    0.906400     0.00000    1.000000    
    493 Mg    c    0.916663    0.729169    0.156400     0.00000    1.000000    
    494 Mg    c    0.916663    0.729169    0.406400     0.00000    1.000000    
    495 Mg    c    0.916663    0.729169    0.656400     0.00000    1.000000    
    496 Mg    c    0.916663    0.729169    0.906400     0.00000    1.000000    
    497 Mg    c    0.916663    0.791669    0.156400     0.00000    1.000000    
    498 Mg    c    0.916663    0.791669    0.406400     0.00000    1.000000    
    499 Mg    c    0.916663    0.791669    0.656400     0.00000    1.000000    
    500 Mg    c    0.916663    0.791669    0.906400     0.00000    1.000000    
    501 Mg    c    0.916663    0.854169    0.156400     0.00000    1.000000    
    502 Mg    c    0.916663    0.854169    0.406400     0.00000    1.000000    
    503 Mg    c    0.916663    0.854169    0.656400     0.00000    1.000000    
    504 Mg    c    0.916663    0.854169    0.906400     0.00000    1.000000    
    505 Mg    c    0.916663    0.916669    0.156400     0.00000    1.000000    
    506 Mg    c    0.916663    0.916669    0.406400     0.00000    1.000000    
    507 Mg    c    0.916663    0.916669    0.656400     0.00000    1.000000    
    508 Mg    c    0.916663    0.916669    0.906400     0.00000    1.000000    
    509 Mg    c    0.916663    0.979169    0.156400     0.00000    1.000000    
    510 Mg    c    0.916663    0.979169    0.406400     0.00000    1.000000    
    511 Mg    c    0.916663    0.979169    0.656400     0.00000    1.000000    
    512 Mg    c    0.916663    0.979169    0.906400     0.00000    1.000000    
    513 Mg    c    0.083337    0.020831    0.031400     0.00000    1.000000    
    514 Mg    c    0.083337    0.020831    0.281400     0.00000    1.000000    
    515 Mg    c    0.083337    0.020831    0.531400     0.00000    1.000000    
    516 Mg    c    0.083337    0.020831    0.781400     0.00000    1.000000    
    517 Mg    c    0.083337    0.083331    0.031400     0.00000    1.000000    
    518 Mg    c    0.083337    0.083331    0.281400     0.00000    1.000000    
    519 Mg    c    0.083337    0.083331    0.531400     0.00000    1.000000    
    520 Mg    c    0.083337    0.083331    0.781400     0.00000    1.000000    
    521 Mg    c    0.083337    0.145831    0.031400     0.00000    1.000000    
    522 Mg    c    0.083337    0.145831    0.281400     0.00000    1.000000    
    523 Mg    c    0.083337    0.145831    0.531400     0.00000    1.000000    
    524 Mg    c    0.083337    0.145831    0.781400     0.00000    1.000000    
    525 Mg    c    0.083337    0.208331    0.031400     0.00000    1.000000    
    526 Mg    c    0.083337    0.208331    0.281400     0.00000    1.000000    
    527 Mg    c    0.083337    0.208331    0.531400     0.00000    1.000000    
    528 Mg    c    0.083337    0.208331    0.781400     0.00000    1.000000    
    529 Mg    c    0.083337    0.270831    0.031400     0.00000    1.000000    
    530 Mg    c    0.083337    0.270831    0.281400     0.00000    1.000000    
    531 Mg    c    0.083337    0.270831    0.531400     0.00000    1.000000    
    532 Mg    c    0.083337    0.270831    0.781400     0.00000    1.000000    
    533 Mg    c    0.083337    0.333331    0.031400     0.00000    1.000000    
    534 Mg    c    0.083337    0.333331    0.281400     0.00000    1.000000    
    535 Mg    c    0.083337    0.333331    0.531400     0.00000    1.000000    
    536 Mg    c    0.083337    0.333331    0.781400     0.00000    1.000000    
    537 Mg    c    0.083337    0.395831    0.031400     0.00000    1.000000    
    538 Mg    c    0.083337    0.395831    0.281400     0.00000    1.000000    
    539 Mg    c    0.083337    0.395831    0.531400     0.00000    1.000000    
    540 Mg    c    0.083337    0.395831    0.781400     0.00000    1.000000    
    541 Mg    c    0.083337    0.458331    0.031400     0.00000    1.000000    
    542 Mg    c    0.083337    0.458331    0.281400     0.00000    1.000000    
    543 Mg    c    0.083337    0.458331    0.531400     0.00000    1.000000    
    544 Mg    c    0.083337    0.458331    0.781400     0.00000    1.000000    
    545 Mg    c    0.083337    0.520831    0.031400     0.00000    1.000000    
    546 Mg    c    0.083337    0.520831    0.281400     0.00000    1.000000    
    547 Mg    c    0.083337    0.520831    0.531400     0.00000    1.000000    
    548 Mg    c    0.083337    0.520831    0.781400     0.00000    1.000000    
    549 Mg    c    0.083337    0.583331    0.031400     0.00000    1.000000    
    550 Mg    c    0.083337    0.583331    0.281400     0.00000    1.000000    
    551 Mg    c    0.083337    0.583331    0.531400     0.00000    1.000000    
    552 Mg    c    0.083337    0.583331    0.781400     0.00000    1.000000    
    553 Mg    c    0.083337    0.645831    0.031400     0.00000    1.000000    
    554 Mg    c    0.083337    0.645831    0.281400     0.00000    1.000000    
    555 Mg    c    0.083337    0.645831    0.531400     0.00000    1.000000    
    556 Mg    c    0.083337    0.645831    0.781400     0.00000    1.000000    
    557 Mg    c    0.083337    0.708331    0.031400     0.00000    1.000000    
    558 Mg    c    0.083337    0.708331    0.281400     0.00000    1.000000    
    559 Mg    c    0.083337    0.708331    0.531400     0.00000    1.000000    
    560 Mg    c    0.083337    0.708331    0.781400     0.00000    1.000000    
    561 Mg    c    0.083337    0.770831    0.031400     0.00000    1.000000    
    562 Mg    c    0.083337    0.770831    0.281400     0.00000    1.000000    
    563 Mg    c    0.083337    0.770831    0.531400     0.00000    1.000000    
    564 Mg    c    0.083337    0.770831    0.781400     0.00000    1.000000    
    565 Mg    c    0.083337    0.833331    0.031400     0.00000    1.000000    
    566 Mg    c    0.083337    0.833331    0.281400     0.00000    1.000000    
    567 Mg    c    0.083337    0.833331    0.531400     0.00000    1.000000    
    568 Mg    c    0.083337    0.833331    0.781400     0.00000    1.000000    
    569 Mg    c    0.083337    0.895831    0.031400     0.00000    1.000000    
    570 Mg    c    0.083337    0.895831    0.281400     0.00000    1.000000    
    571 Mg    c    0.083337    0.895831    0.531400     0.00000    1.000000    
    572 Mg    c    0.083337    0.895831    0.781400     0.00000    1.000000    
    573 Mg    c    0.083337    0.958331    0.031400     0.00000    1.000000    
    574 Mg    c    0.083337    0.958331    0.281400     0.00000    1.000000    
    575 Mg    c    0.083337    0.958331    0.531400     0.00000    1.000000    
    576 Mg    c    0.083337    0.958331    0.781400     0.00000    1.000000    
    577 Mg    c    0.208337    0.020831    0.031400     0.00000    1.000000    
    578 Mg    c    0.208337    0.020831    0.281400     0.00000    1.000000    
    579 Mg    c    0.208337    0.020831    0.531400     0.00000    1.000000    
    580 Mg    c    0.208337    0.020831    0.781400     0.00000    1.000000    
    581 Mg    c    0.208337    0.083331    0.031400     0.00000    1.000000    
    582 Mg    c    0.208337    0.083331    0.281400     0.00000    1.000000    
    583 Mg    c    0.208337    0.083331    0.531400     0.00000    1.000000    
    584 Mg    c    0.208337    0.083331    0.781400     0.00000    1.000000    
    585 Mg    c    0.208337    0.145831    0.031400     0.00000    1.000000    
    586 Mg    c    0.208337    0.145831    0.281400     0.00000    1.000000    
    587 Mg    c    0.208337    0.145831    0.531400     0.00000    1.000000    
    588 Mg    c    0.208337    0.145831    0.781400     0.00000    1.000000    
    589 Mg    c    0.208337    0.208331    0.031400     0.00000    1.000000    
    590 Mg    c    0.208337    0.208331    0.281400     0.00000    1.000000    
    591 Mg    c    0.208337    0.208331    0.531400     0.00000    1.000000    
    592 Mg    c    0.208337    0.208331    0.781400     0.00000    1.000000    
    593 Mg    c    0.208337    0.270831    0.031400     0.00000    1.000000    
    594 Mg    c    0.208337    0.270831    0.281400     0.00000    1.000000    
    595 Mg    c    0.208337    0.270831    0.531400     0.00000    1.000000    
    596 Mg    c    0.208337    0.270831    0.781400     0.00000    1.000000    
    597 Mg    c    0.208337    0.333331    0.031400     0.00000    1.000000    
    598 Mg    c    0.208337    0.333331    0.281400     0.00000    1.000000    
    599 Mg    c    0.208337    0.333331    0.531400     0.00000    1.000000    
    600 Mg    c    0.208337    0.333331    0.781400     0.00000    1.000000    
    601 Mg    c    0.208337    0.395831    0.031400     0.00000    1.000000    
    602 Mg    c    0.208337    0.395831    0.281400     0.00000    1.000000    
    603 Mg    c    0.208337    0.395831    0.531400     0.00000    1.000000    
    604 Mg    c    0.208337    0.395831    0.781400     0.00000    1.000000    
    605 Mg    c    0.208337    0.458331    0.031400     0.00000    1.000000    
    606 Mg    c    0.208337    0.458331    0.281400     0.00000    1.000000    
    607 Mg    c    0.208337    0.458331    0.531400     0.00000    1.000000    
    608 Mg    c    0.208337    0.458331    0.781400     0.00000    1.000000    
    609 Mg    c    0.208337    0.520831    0.031400     0.00000    1.000000    
    610 Mg    c    0.208337    0.520831    0.281400     0.00000    1.000000    
    611 Mg    c    0.208337    0.520831    0.531400     0.00000    1.000000    
    612 Mg    c    0.208337    0.520831    0.781400     0.00000    1.000000    
    613 Mg    c    0.208337    0.583331    0.031400     0.00000    1.000000    
    614 Mg    c    0.208337    0.583331    0.281400     0.00000    1.000000    
    615 Mg    c    0.208337    0.583331    0.531400     0.00000    1.000000    
    616 Mg    c    0.208337    0.583331    0.781400     0.00000    1.000000    
    617 Mg    c    0.208337    0.645831    0.031400     0.00000    1.000000    
    618 Mg    c    0.208337    0.645831    0.281400     0.00000    1.000000    
    619 Mg    c    0.208337    0.645831    0.531400     0.00000    1.000000    
    620 Mg    c    0.208337    0.645831    0.781400     0.00000    1.000000    
    621 Mg    c    0.208337    0.708331    0.031400     0.00000    1.000000    
    622 Mg    c    0.208337    0.708331    0.281400     0.00000    1.000000    
    623 Mg    c    0.208337    0.708331    0.531400     0.00000    1.000000    
    624 Mg    c    0.208337    0.708331    0.781400     0.00000    1.000000    
    625 Mg    c    0.208337    0.770831    0.031400     0.00000    1.000000    
    626 Mg    c    0.208337    0.770831    0.281400     0.00000    1.000000    
    627 Mg    c    0.208337    0.770831    0.531400     0.00000    1.000000    
    628 Mg    c    0.208337    0.770831    0.781400     0.00000    1.000000    
    629 Mg    c    0.208337    0.833331    0.031400     0.00000    1.000000    
    630 Mg    c    0.208337    0.833331    0.281400     0.00000    1.000000    
    631 Mg    c    0.208337    0.833331    0.531400     0.00000    1.000000    
    632 Mg    c    0.208337    0.833331    0.781400     0.00000    1.000000    
    633 Mg    c    0.208337    0.895831    0.031400     0.00000    1.000000    
    634 Mg    c    0.208337    0.895831    0.281400     0.00000    1.000000    
    635 Mg    c    0.208337    0.895831    0.531400     0.00000    1.000000    
    636 Mg    c    0.208337    0.895831    0.781400     0.00000    1.000000    
    637 Mg    c    0.208337    0.958331    0.031400     0.00000    1.000000    
    638 Mg    c    0.208337    0.958331    0.281400     0.00000    1.000000    
    639 Mg    c    0.208337    0.958331    0.531400     0.00000    1.000000    
    640 Mg    c    0.208337    0.958331    0.781400     0.00000    1.000000    
    641 Mg    c    0.333337    0.020831    0.031400     0.00000    1.000000    
    642 Mg    c    0.333337    0.020831    0.281400     0.00000    1.000000    
    643 Mg    c    0.333337    0.020831    0.531400     0.00000    1.000000    
    644 Mg    c    0.333337    0.020831    0.781400     0.00000    1.000000    
    645 Mg    c    0.333337    0.083331    0.031400     0.00000    1.000000    
    646 Mg    c    0.333337    0.083331    0.281400     0.00000    1.000000    
    647 Mg    c    0.333337    0.083331    0.531400     0.00000    1.000000    
    648 Mg    c    0.333337    0.083331    0.781400     0.00000    1.000000    
    649 Mg    c    0.333337    0.145831    0.031400     0.00000    1.000000    
    650 Mg    c    0.333337    0.145831    0.281400     0.00000    1.000000    
    651 Mg    c    0.333337    0.145831    0.531400     0.00000    1.000000    
    652 Mg    c    0.333337    0.145831    0.781400     0.00000    1.000000    
    653 Mg    c    0.333337    0.208331    0.031400     0.00000    1.000000    
    654 Mg    c    0.333337    0.208331    0.281400     0.00000    1.000000    
    655 Mg    c    0.333337    0.208331    0.531400     0.00000    1.000000    
    656 Mg    c    0.333337    0.208331    0.781400     0.00000    1.000000    
    657 Mg    c    0.333337    0.270831    0.031400     0.00000    1.000000    
    658 Mg    c    0.333337    0.270831    0.281400     0.00000    1.000000    
    659 Mg    c    0.333337    0.270831    0.531400     0.00000    1.000000    
    660 Mg    c    0.333337    0.270831    0.781400     0.00000    1.000000    
    661 Mg    c    0.333337    0.333331    0.031400     0.00000    1.000000    
    662 Mg    c    0.333337    0.333331    0.281400     0.00000    1.000000    
    663 Mg    c    0.333337    0.333331    0.531400     0.00000    1.000000    
    664 Mg    c    0.333337    0.333331    0.781400     0.00000    1.000000    
    665 Mg    c    0.333337    0.395831    0.031400     0.00000    1.000000    
    666 Mg    c    0.333337    0.395831    0.281400     0.00000    1.000000    
    667 Mg    c    0.333337    0.395831    0.531400     0.00000    1.000000    
    668 Mg    c    0.333337    0.395831    0.781400     0.00000    1.000000    
    669 Mg    c    0.333337    0.458331    0.031400     0.00000    1.000000    
    670 Mg    c    0.333337    0.458331    0.281400     0.00000    1.000000    
    671 Mg    c    0.333337    0.458331    0.531400     0.00000    1.000000    
    672 Mg    c    0.333337    0.458331    0.781400     0.00000    1.000000    
    673 Mg    c    0.333337    0.520831    0.031400     0.00000    1.000000    
    674 Mg    c    0.333337    0.520831    0.281400     0.00000    1.000000    
    675 Mg    c    0.333337    0.520831    0.531400     0.00000    1.000000    
    676 Mg    c    0.333337    0.520831    0.781400     0.00000    1.000000    
    677 Mg    c    0.333337    0.583331    0.031400     0.00000    1.000000    
    678 Mg    c    0.333337    0.583331    0.281400     0.00000    1.000000    
    679 Mg    c    0.333337    0.583331    0.531400     0.00000    1.000000    
    680 Mg    c    0.333337    0.583331    0.781400     0.00000    1.000000    
    681 Mg    c    0.333337    0.645831    0.031400     0.00000    1.000000    
    682 Mg    c    0.333337    0.645831    0.281400     0.00000    1.000000    
    683 Mg    c    0.333337    0.645831    0.531400     0.00000    1.000000    
    684 Mg    c    0.333337    0.645831    0.781400     0.00000    1.000000    
    685 Mg    c    0.333337    0.708331    0.031400     0.00000    1.000000    
    686 Mg    c    0.333337    0.708331    0.281400     0.00000    1.000000    
    687 Mg    c    0.333337    0.708331    0.531400     0.00000    1.000000    
    688 Mg    c    0.333337    0.708331    0.781400     0.00000    1.000000    
    689 Mg    c    0.333337    0.770831    0.031400     0.00000    1.000000    
    690 Mg    c    0.333337    0.770831    0.281400     0.00000    1.000000    
    691 Mg    c    0.333337    0.770831    0.531400     0.00000    1.000000    
    692 Mg    c    0.333337    0.770831    0.781400     0.00000    1.000000    
    693 Mg    c    0.333337    0.833331    0.031400     0.00000    1.000000    
    694 Mg    c    0.333337    0.833331    0.281400     0.00000    1.000000    
    695 Mg    c    0.333337    0.833331    0.531400     0.00000    1.000000    
    696 Mg    c    0.333337    0.833331    0.781400     0.00000    1.000000    
    697 Mg    c    0.333337    0.895831    0.031400     0.00000    1.000000    
    698 Mg    c    0.333337    0.895831    0.281400     0.00000    1.000000    
    699 Mg    c    0.333337    0.895831    0.531400     0.00000    1.000000    
    700 Mg    c    0.333337    0.895831    0.781400     0.00000    1.000000    
    701 Mg    c    0.333337    0.958331    0.031400     0.00000    1.000000    
    702 Mg    c    0.333337    0.958331    0.281400     0.00000    1.000000    
    703 Mg    c    0.333337    0.958331    0.531400     0.00000    1.000000    
    704 Mg    c    0.333337    0.958331    0.781400     0.00000    1.000000    
    705 Mg    c    0.458337    0.020831    0.031400     0.00000    1.000000    
    706 Mg    c    0.458337    0.020831    0.281400     0.00000    1.000000    
    707 Mg    c    0.458337    0.020831    0.531400     0.00000    1.000000    
    708 Mg    c    0.458337    0.020831    0.781400     0.00000    1.000000    
    709 Mg    c    0.458337    0.083331    0.031400     0.00000    1.000000    
    710 Mg    c    0.458337    0.083331    0.281400     0.00000    1.000000    
    711 Mg    c    0.458337    0.083331    0.531400     0.00000    1.000000    
    712 Mg    c    0.458337    0.083331    0.781400     0.00000    1.000000    
    713 Mg    c    0.458337    0.145831    0.031400     0.00000    1.000000    
    714 Mg    c    0.458337    0.145831    0.281400     0.00000    1.000000    
    715 Mg    c    0.458337    0.145831    0.531400     0.00000    1.000000    
    716 Mg    c    0.458337    0.145831    0.781400     0.00000    1.000000    
    717 Mg    c    0.458337    0.208331    0.031400     0.00000    1.000000    
    718 Mg    c    0.458337    0.208331    0.281400     0.00000    1.000000    
    719 Mg    c    0.458337    0.208331    0.531400     0.00000    1.000000    
    720 Mg    c    0.458337    0.208331    0.781400     0.00000    1.000000    
    721 Mg    c    0.458337    0.270831    0.031400     0.00000    1.000000    
    722 Mg    c    0.458337    0.270831    0.281400     0.00000    1.000000    
    723 Mg    c    0.458337    0.270831    0.531400     0.00000    1.000000    
    724 Mg    c    0.458337    0.270831    0.781400     0.00000    1.000000    
    725 Mg    c    0.458337    0.333331    0.031400     0.00000    1.000000    
    726 Mg    c    0.458337    0.333331    0.281400     0.00000    1.000000    
    727 Mg    c    0.458337    0.333331    0.531400     0.00000    1.000000    
    728 Mg    c    0.458337    0.333331    0.781400     0.00000    1.000000    
    729 Mg    c    0.458337    0.395831    0.031400     0.00000    1.000000    
    730 Mg    c    0.458337    0.395831    0.281400     0.00000    1.000000    
    731 Mg    c    0.458337    0.395831    0.531400     0.00000    1.000000    
    732 Mg    c    0.458337    0.395831    0.781400     0.00000    1.000000    
    733 Mg    c    0.458337    0.458331    0.031400     0.00000    1.000000    
    734 Mg    c    0.458337    0.458331    0.281400     0.00000    1.000000    
    735 Mg    c    0.458337    0.458331    0.531400     0.00000    1.000000    
    736 Mg    c    0.458337    0.458331    0.781400     0.00000    1.000000    
    737 Mg    c    0.458337    0.520831    0.031400     0.00000    1.000000    
    738 Mg    c    0.458337    0.520831    0.281400     0.00000    1.000000    
    739 Mg    c    0.458337    0.520831    0.531400     0.00000    1.000000    
    740 Mg    c    0.458337    0.520831    0.781400     0.00000    1.000000    
    741 Mg    c    0.458337    0.583331    0.031400     0.00000    1.000000    
    742 Mg    c    0.458337    0.583331    0.281400     0.00000    1.000000    
    743 Mg    c    0.458337    0.583331    0.531400     0.00000    1.000000    
    744 Mg    c    0.458337    0.583331    0.781400     0.00000    1.000000    
    745 Mg    c    0.458337    0.645831    0.031400     0.00000    1.000000    
    746 Mg    c    0.458337    0.645831    0.281400     0.00000    1.000000    
    747 Mg    c    0.458337    0.645831    0.531400     0.00000    1.000000    
    748 Mg    c    0.458337    0.645831    0.781400     0.00000    1.000000    
    749 Mg    c    0.458337    0.708331    0.031400     0.00000    1.000000    
    750 Mg    c    0.458337    0.708331    0.281400     0.00000    1.000000    
    751 Mg    c    0.458337    0.708331    0.531400     0.00000    1.000000    
    752 Mg    c    0.458337    0.708331    0.781400     0.00000    1.000000    
    753 Mg    c    0.458337    0.770831    0.031400     0.00000    1.000000    
    754 Mg    c    0.458337    0.770831    0.281400     0.00000    1.000000    
    755 Mg    c    0.458337    0.770831    0.531400     0.00000    1.000000    
    756 Mg    c    0.458337    0.770831    0.781400     0.00000    1.000000    
    757 Mg    c    0.458337    0.833331    0.031400     0.00000    1.000000    
    758 Mg    c    0.458337    0.833331    0.281400     0.00000    1.000000    
    759 Mg    c    0.458337    0.833331    0.531400     0.00000    1.000000    
    760 Mg    c    0.458337    0.833331    0.781400     0.00000    1.000000    
    761 Mg    c    0.458337    0.895831    0.031400     0.00000    1.000000    
    762 Mg    c    0.458337    0.895831    0.281400     0.00000    1.000000    
    763 Mg    c    0.458337    0.895831    0.531400     0.00000    1.000000    
    764 Mg    c    0.458337    0.895831    0.781400     0.00000    1.000000    
    765 Mg    c    0.458337    0.958331    0.031400     0.00000    1.000000    
    766 Mg    c    0.458337    0.958331    0.281400     0.00000    1.000000    
    767 Mg    c    0.458337    0.958331    0.531400     0.00000    1.000000    
    768 Mg    c    0.458337    0.958331    0.781400     0.00000    1.000000    
    769 Mg    c    0.583337    0.020831    0.031400     0.00000    1.000000    
    770 Mg    c    0.583337    0.020831    0.281400     0.00000    1.000000    
    771 Mg    c    0.583337    0.020831    0.531400     0.00000    1.000000    
    772 Mg    c    0.583337    0.020831    0.781400     0.00000    1.000000    
    773 Mg    c    0.583337    0.083331    0.031400     0.00000    1.000000    
    774 Mg    c    0.583337    0.083331    0.281400     0.00000    1.000000    
    775 Mg    c    0.583337    0.083331    0.531400     0.00000    1.000000    
    776 Mg    c    0.583337    0.083331    0.781400     0.00000    1.000000    
    777 Mg    c    0.583337    0.145831    0.031400     0.00000    1.000000    
    778 Mg    c    0.583337    0.145831    0.281400     0.00000    1.000000    
    779 Mg    c    0.583337    0.145831    0.531400     0.00000    1.000000    
    780 Mg    c    0.583337    0.145831    0.781400     0.00000    1.000000    
    781 Mg    c    0.583337    0.208331    0.031400     0.00000    1.000000    
    782 Mg    c    0.583337    0.208331    0.281400     0.00000    1.000000    
    783 Mg    c    0.583337    0.208331    0.531400     0.00000    1.000000    
    784 Mg    c    0.583337    0.208331    0.781400     0.00000    1.000000    
    785 Mg    c    0.583337    0.270831    0.031400     0.00000    1.000000    
    786 Mg    c    0.583337    0.270831    0.281400     0.00000    1.000000    
    787 Mg    c    0.583337    0.270831    0.531400     0.00000    1.000000    
    788 Mg    c    0.583337    0.270831    0.781400     0.00000    1.000000    
    789 Mg    c    0.583337    0.333331    0.031400     0.00000    1.000000    
    790 Mg    c    0.583337    0.333331    0.281400     0.00000    1.000000    
    791 Mg    c    0.583337    0.333331    0.531400     0.00000    1.000000    
    792 Mg    c    0.583337    0.333331    0.781400     0.00000    1.000000    
    793 Mg    c    0.583337    0.395831    0.031400     0.00000    1.000000    
    794 Mg    c    0.583337    0.395831    0.281400     0.00000    1.000000    
    795 Mg    c    0.583337    0.395831    0.531400     0.00000    1.000000    
    796 Mg    c    0.583337    0.395831    0.781400     0.00000    1.000000    
    797 Mg    c    0.583337    0.458331    0.031400     0.00000    1.000000    
    798 Mg    c    0.583337    0.458331    0.281400     0.00000    1.000000    
    799 Mg    c    0.583337    0.458331    0.531400     0.00000    1.000000    
    800 Mg    c    0.583337    0.458331    0.781400     0.00000    1.000000    
    801 Mg    c    0.583337    0.520831    0.031400     0.00000    1.000000    
    802 Mg    c    0.583337    0.520831    0.281400     0.00000    1.000000    
    803 Mg    c    0.583337    0.520831    0.531400     0.00000    1.000000    
    804 Mg    c    0.583337    0.520831    0.781400     0.00000    1.000000    
    805 Mg    c    0.583337    0.583331    0.031400     0.00000    1.000000    
    806 Mg    c    0.583337    0.583331    0.281400     0.00000    1.000000    
    807 Mg    c    0.583337    0.583331    0.531400     0.00000    1.000000    
    808 Mg    c    0.583337    0.583331    0.781400     0.00000    1.000000    
    809 Mg    c    0.583337    0.645831    0.031400     0.00000    1.000000    
    810 Mg    c    0.583337    0.645831    0.281400     0.00000    1.000000    
    811 Mg    c    0.583337    0.645831    0.531400     0.00000    1.000000    
    812 Mg    c    0.583337    0.645831    0.781400     0.00000    1.000000    
    813 Mg    c    0.583337    0.708331    0.031400     0.00000    1.000000    
    814 Mg    c    0.583337    0.708331    0.281400     0.00000    1.000000    
    815 Mg    c    0.583337    0.708331    0.531400     0.00000    1.000000    
    816 Mg    c    0.583337    0.708331    0.781400     0.00000    1.000000    
    817 Mg    c    0.583337    0.770831    0.031400     0.00000    1.000000    
    818 Mg    c    0.583337    0.770831    0.281400     0.00000    1.000000    
    819 Mg    c    0.583337    0.770831    0.531400     0.00000    1.000000    
    820 Mg    c    0.583337    0.770831    0.781400     0.00000    1.000000    
    821 Mg    c    0.583337    0.833331    0.031400     0.00000    1.000000    
    822 Mg    c    0.583337    0.833331    0.281400     0.00000    1.000000    
    823 Mg    c    0.583337    0.833331    0.531400     0.00000    1.000000    
    824 Mg    c    0.583337    0.833331    0.781400     0.00000    1.000000    
    825 Mg    c    0.583337    0.895831    0.031400     0.00000    1.000000    
    826 Mg    c    0.583337    0.895831    0.281400     0.00000    1.000000    
    827 Mg    c    0.583337    0.895831    0.531400     0.00000    1.000000    
    828 Mg    c    0.583337    0.895831    0.781400     0.00000    1.000000    
    829 Mg    c    0.583337    0.958331    0.031400     0.00000    1.000000    
    830 Mg    c    0.583337    0.958331    0.281400     0.00000    1.000000    
    831 Mg    c    0.583337    0.958331    0.531400     0.00000    1.000000    
    832 Mg    c    0.583337    0.958331    0.781400     0.00000    1.000000    
    833 Mg    c    0.708337    0.020831    0.031400     0.00000    1.000000    
    834 Mg    c    0.708337    0.020831    0.281400     0.00000    1.000000    
    835 Mg    c    0.708337    0.020831    0.531400     0.00000    1.000000    
    836 Mg    c    0.708337    0.020831    0.781400     0.00000    1.000000    
    837 Mg    c    0.708337    0.083331    0.031400     0.00000    1.000000    
    838 Mg    c    0.708337    0.083331    0.281400     0.00000    1.000000    
    839 Mg    c    0.708337    0.083331    0.531400     0.00000    1.000000    
    840 Mg    c    0.708337    0.083331    0.781400     0.00000    1.000000    
    841 Mg    c    0.708337    0.145831    0.031400     0.00000    1.000000    
    842 Mg    c    0.708337    0.145831    0.281400     0.00000    1.000000    
    843 Mg    c    0.708337    0.145831    0.531400     0.00000    1.000000    
    844 Mg    c    0.708337    0.145831    0.781400     0.00000    1.000000    
    845 Mg    c    0.708337    0.208331    0.031400     0.00000    1.000000    
    846 Mg    c    0.708337    0.208331    0.281400     0.00000    1.000000    
    847 Mg    c    0.708337    0.208331    0.531400     0.00000    1.000000    
    848 Mg    c    0.708337    0.208331    0.781400     0.00000    1.000000    
    849 Mg    c    0.708337    0.270831    0.031400     0.00000    1.000000    
    850 Mg    c    0.708337    0.270831    0.281400     0.00000    1.000000    
    851 Mg    c    0.708337    0.270831    0.531400     0.00000    1.000000    
    852 Mg    c    0.708337    0.270831    0.781400     0.00000    1.000000    
    853 Mg    c    0.708337    0.333331    0.031400     0.00000    1.000000    
    854 Mg    c    0.708337    0.333331    0.281400     0.00000    1.000000    
    855 Mg    c    0.708337    0.333331    0.531400     0.00000    1.000000    
    856 Mg    c    0.708337    0.333331    0.781400     0.00000    1.000000    
    857 Mg    c    0.708337    0.395831    0.031400     0.00000    1.000000    
    858 Mg    c    0.708337    0.395831    0.281400     0.00000    1.000000    
    859 Mg    c    0.708337    0.395831    0.531400     0.00000    1.000000    
    860 Mg    c    0.708337    0.395831    0.781400     0.00000    1.000000    
    861 Mg    c    0.708337    0.458331    0.031400     0.00000    1.000000    
    862 Mg    c    0.708337    0.458331    0.281400     0.00000    1.000000    
    863 Mg    c    0.708337    0.458331    0.531400     0.00000    1.000000    
    864 Mg    c    0.708337    0.458331    0.781400     0.00000    1.000000    
    865 Mg    c    0.708337    0.520831    0.031400     0.00000    1.000000    
    866 Mg    c    0.708337    0.520831    0.281400     0.00000    1.000000    
    867 Mg    c    0.708337    0.520831    0.531400     0.00000    1.000000    
    868 Mg    c    0.708337    0.520831    0.781400     0.00000    1.000000    
    869 Mg    c    0.708337    0.583331    0.031400     0.00000    1.000000    
    870 Mg    c    0.708337    0.583331    0.281400     0.00000    1.000000    
    871 Mg    c    0.708337    0.583331    0.531400     0.00000    1.000000    
    872 Mg    c    0.708337    0.583331    0.781400     0.00000    1.000000    
    873 Mg    c    0.708337    0.645831    0.031400     0.00000    1.000000    
    874 Mg    c    0.708337    0.645831    0.281400     0.00000    1.000000    
    875 Mg    c    0.708337    0.645831    0.531400     0.00000    1.000000    
    876 Mg    c    0.708337    0.645831    0.781400     0.00000    1.000000    
    877 Mg    c    0.708337    0.708331    0.031400     0.00000    1.000000    
    878 Mg    c    0.708337    0.708331    0.281400     0.00000    1.000000    
    879 Mg    c    0.708337    0.708331    0.531400     0.00000    1.000000    
    880 Mg    c    0.708337    0.708331    0.781400     0.00000    1.000000    
    881 Mg    c    0.708337    0.770831    0.031400     0.00000    1.000000    
    882 Mg    c    0.708337    0.770831    0.281400     0.00000    1.000000    
    883 Mg    c    0.708337    0.770831    0.531400     0.00000    1.000000    
    884 Mg    c    0.708337    0.770831    0.781400     0.00000    1.000000    
    885 Mg    c    0.708337    0.833331    0.031400     0.00000    1.000000    
    886 Mg    c    0.708337    0.833331    0.281400     0.00000    1.000000    
    887 Mg    c    0.708337    0.833331    0.531400     0.00000    1.000000    
    888 Mg    c    0.708337    0.833331    0.781400     0.00000    1.000000    
    889 Mg    c    0.708337    0.895831    0.031400     0.00000    1.000000    
    890 Mg    c    0.708337    0.895831    0.281400     0.00000    1.000000    
    891 Mg    c    0.708337    0.895831    0.531400     0.00000    1.000000    
    892 Mg    c    0.708337    0.895831    0.781400     0.00000    1.000000    
    893 Mg    c    0.708337    0.958331    0.031400     0.00000    1.000000    
    894 Mg    c    0.708337    0.958331    0.281400     0.00000    1.000000    
    895 Mg    c    0.708337    0.958331    0.531400     0.00000    1.000000    
    896 Mg    c    0.708337    0.958331    0.781400     0.00000    1.000000    
    897 Mg    c    0.833337    0.020831    0.031400     0.00000    1.000000    
    898 Mg    c    0.833337    0.020831    0.281400     0.00000    1.000000    
    899 Mg    c    0.833337    0.020831    0.531400     0.00000    1.000000    
    900 Mg    c    0.833337    0.020831    0.781400     0.00000    1.000000    
    901 Mg    c    0.833337    0.083331    0.031400     0.00000    1.000000    
    902 Mg    c    0.833337    0.083331    0.281400     0.00000    1.000000    
    903 Mg    c    0.833337    0.083331    0.531400     0.00000    1.000000    
    904 Mg    c    0.833337    0.083331    0.781400     0.00000    1.000000    
    905 Mg    c    0.833337    0.145831    0.031400     0.00000    1.000000    
    906 Mg    c    0.833337    0.145831    0.281400     0.00000    1.000000    
    907 Mg    c    0.833337    0.145831    0.531400     0.00000    1.000000    
    908 Mg    c    0.833337    0.145831    0.781400     0.00000    1.000000    
    909 Mg    c    0.833337    0.208331    0.031400     0.00000    1.000000    
    910 Mg    c    0.833337    0.208331    0.281400     0.00000    1.000000    
    911 Mg    c    0.833337    0.208331    0.531400     0.00000    1.000000    
    912 Mg    c    0.833337    0.208331    0.781400     0.00000    1.000000    
    913 Mg    c    0.833337    0.270831    0.031400     0.00000    1.000000    
    914 Mg    c    0.833337    0.270831    0.281400     0.00000    1.000000    
    915 Mg    c    0.833337    0.270831    0.531400     0.00000    1.000000    
    916 Mg    c    0.833337    0.270831    0.781400     0.00000    1.000000    
    917 Mg    c    0.833337    0.333331    0.031400     0.00000    1.000000    
    918 Mg    c    0.833337    0.333331    0.281400     0.00000    1.000000    
    919 Mg    c    0.833337    0.333331    0.531400     0.00000    1.000000    
    920 Mg    c    0.833337    0.333331    0.781400     0.00000    1.000000    
    921 Mg    c    0.833337    0.395831    0.031400     0.00000    1.000000    
    922 Mg    c    0.833337    0.395831    0.281400     0.00000    1.000000    
    923 Mg    c    0.833337    0.395831    0.531400     0.00000    1.000000    
    924 Mg    c    0.833337    0.395831    0.781400     0.00000    1.000000    
    925 Mg    c    0.833337    0.458331    0.031400     0.00000    1.000000    
    926 Mg    c    0.833337    0.458331    0.281400     0.00000    1.000000    
    927 Mg    c    0.833337    0.458331    0.531400     0.00000    1.000000    
    928 Mg    c    0.833337    0.458331    0.781400     0.00000    1.000000    
    929 Mg    c    0.833337    0.520831    0.031400     0.00000    1.000000    
    930 Mg    c    0.833337    0.520831    0.281400     0.00000    1.000000    
    931 Mg    c    0.833337    0.520831    0.531400     0.00000    1.000000    
    932 Mg    c    0.833337    0.520831    0.781400     0.00000    1.000000    
    933 Mg    c    0.833337    0.583331    0.031400     0.00000    1.000000    
    934 Mg    c    0.833337    0.583331    0.281400     0.00000    1.000000    
    935 Mg    c    0.833337    0.583331    0.531400     0.00000    1.000000    
    936 Mg    c    0.833337    0.583331    0.781400     0.00000    1.000000    
    937 Mg    c    0.833337    0.645831    0.031400     0.00000    1.000000    
    938 Mg    c    0.833337    0.645831    0.281400     0.00000    1.000000    
    939 Mg    c    0.833337    0.645831    0.531400     0.00000    1.000000    
    940 Mg    c    0.833337    0.645831    0.781400     0.00000    1.000000    
    941 Mg    c    0.833337    0.708331    0.031400     0.00000    1.000000    
    942 Mg    c    0.833337    0.708331    0.281400     0.00000    1.000000    
    943 Mg    c    0.833337    0.708331    0.531400     0.00000    1.000000    
    944 Mg    c    0.833337    0.708331    0.781400     0.00000    1.000000    
    945 Mg    c    0.833337    0.770831    0.031400     0.00000    1.000000    
    946 Mg    c    0.833337    0.770831    0.281400     0.00000    1.000000    
    947 Mg    c    0.833337    0.770831    0.531400     0.00000    1.000000    
    948 Mg    c    0.833337    0.770831    0.781400     0.00000    1.000000    
    949 Mg    c    0.833337    0.833331    0.031400     0.00000    1.000000    
    950 Mg    c    0.833337    0.833331    0.281400     0.00000    1.000000    
    951 Mg    c    0.833337    0.833331    0.531400     0.00000    1.000000    
    952 Mg    c    0.833337    0.833331    0.781400     0.00000    1.000000    
    953 Mg    c    0.833337    0.895831    0.031400     0.00000    1.000000    
    954 Mg    c    0.833337    0.895831    0.281400     0.00000    1.000000    
    955 Mg    c    0.833337    0.895831    0.531400     0.00000    1.000000    
    956 Mg    c    0.833337    0.895831    0.781400     0.00000    1.000000    
    957 Mg    c    0.833337    0.958331    0.031400     0.00000    1.000000    
    958 Mg    c    0.833337    0.958331    0.281400     0.00000    1.000000    
    959 Mg    c    0.833337    0.958331    0.531400     0.00000    1.000000    
    960 Mg    c    0.833337    0.958331    0.781400     0.00000    1.000000    
    961 Mg    c    0.958337    0.020831    0.031400     0.00000    1.000000    
[...]
      5813                   8                -2.0000000
      5814                   8                -2.0000000
      5815                   8                -2.0000000
      5816                   8                -2.0000000
      5817                   8                -2.0000000
      5818                   8                -2.0000000
      5819                   8                -2.0000000
      5820                   8                -2.0000000
      5821                   8                -2.0000000
      5822                   8                -2.0000000
      5823                   8                -2.0000000
      5824                   8                -2.0000000
      5825                   8                -2.0000000
      5826                   8                -2.0000000
      5827                   8                -2.0000000
      5828                   8                -2.0000000
      5829                   8                -2.0000000
      5830                   8                -2.0000000
      5831                   8                -2.0000000
      5832                   8                -2.0000000
      5833                   8                -2.0000000
      5834                   8                -2.0000000
      5835                   8                -2.0000000
      5836                   8                -2.0000000
      5837                   8                -2.0000000
      5838                   8                -2.0000000
      5839                   8                -2.0000000
      5840                   8                -2.0000000
      5841                   8                -2.0000000
      5842                   8                -2.0000000
      5843                   8                -2.0000000
      5844                   8                -2.0000000
      5845                   8                -2.0000000
      5846                   8                -2.0000000
      5847                   8                -2.0000000
      5848                   8                -2.0000000
      5849                   8                -2.0000000
      5850                   8                -2.0000000
      5851                   8                -2.0000000
      5852                   8                -2.0000000
      5853                   8                -2.0000000
      5854                   8                -2.0000000
      5855                   8                -2.0000000
      5856                   8                -2.0000000
      5857                   8                -2.0000000
      5858                   8                -2.0000000
      5859                   8                -2.0000000
      5860                   8                -2.0000000
      5861                   8                -2.0000000
      5862                   8                -2.0000000
      5863                   8                -2.0000000
      5864                   8                -2.0000000
      5865                   8                -2.0000000
      5866                   8                -2.0000000
      5867                   8                -2.0000000
      5868                   8                -2.0000000
      5869                   8                -2.0000000
      5870                   8                -2.0000000
      5871                   8                -2.0000000
      5872                   8                -2.0000000
      5873                   8                -2.0000000
      5874                   8                -2.0000000
      5875                   8                -2.0000000
      5876                   8                -2.0000000
      5877                   8                -2.0000000
      5878                   8                -2.0000000
      5879                   8                -2.0000000
      5880                   8                -2.0000000
      5881                   8                -2.0000000
      5882                   8                -2.0000000
      5883                   8                -2.0000000
      5884                   8                -2.0000000
      5885                   8                -2.0000000
      5886                   8                -2.0000000
      5887                   8                -2.0000000
      5888                   8                -2.0000000
      5889                   8                -2.0000000
      5890                   8                -2.0000000
      5891                   8                -2.0000000
      5892                   8                -2.0000000
      5893                   8                -2.0000000
      5894                   8                -2.0000000
      5895                   8                -2.0000000
      5896                   8                -2.0000000
      5897                   8                -2.0000000
      5898                   8                -2.0000000
      5899                   8                -2.0000000
      5900                   8                -2.0000000
      5901                   8                -2.0000000
      5902                   8                -2.0000000
      5903                   8                -2.0000000
      5904                   8                -2.0000000
      5905                   8                -2.0000000
      5906                   8                -2.0000000
      5907                   8                -2.0000000
      5908                   8                -2.0000000
      5909                   8                -2.0000000
      5910                   8                -2.0000000
      5911                   8                -2.0000000
      5912                   8                -2.0000000
      5913                   8                -2.0000000
      5914                   8                -2.0000000
      5915                   8                -2.0000000
      5916                   8                -2.0000000
      5917                   8                -2.0000000
      5918                   8                -2.0000000
      5919                   8                -2.0000000
      5920                   8                -2.0000000
      5921                   8                -2.0000000
      5922                   8                -2.0000000
      5923                   8                -2.0000000
      5924                   8                -2.0000000
      5925                   8                -2.0000000
      5926                   8                -2.0000000
      5927                   8                -2.0000000
      5928                   8                -2.0000000
      5929                   8                -2.0000000
      5930                   8                -2.0000000
      5931                   8                -2.0000000
      5932                   8                -2.0000000
      5933                   8                -2.0000000
      5934                   8                -2.0000000
      5935                   8                -2.0000000
      5936                   8                -2.0000000
      5937                   8                -2.0000000
      5938                   8                -2.0000000
      5939                   8                -2.0000000
      5940                   8                -2.0000000
      5941                   8                -2.0000000
      5942                   8                -2.0000000
      5943                   8                -2.0000000
      5944                   8                -2.0000000
      5945                   8                -2.0000000
      5946                   8                -2.0000000
      5947                   8                -2.0000000
      5948                   8                -2.0000000
      5949                   8                -2.0000000
      5950                   8                -2.0000000
      5951                   8                -2.0000000
      5952                   8                -2.0000000
      5953                   8                -2.0000000
      5954                   8                -2.0000000
      5955                   8                -2.0000000
      5956                   8                -2.0000000
      5957                   8                -2.0000000
      5958                   8                -2.0000000
      5959                   8                -2.0000000
      5960                   8                -2.0000000
      5961                   8                -2.0000000
      5962                   8                -2.0000000
      5963                   8                -2.0000000
      5964                   8                -2.0000000
      5965                   8                -2.0000000
      5966                   8                -2.0000000
      5967                   8                -2.0000000
      5968                   8                -2.0000000
      5969                   8                -2.0000000
      5970                   8                -2.0000000
      5971                   8                -2.0000000
      5972                   8                -2.0000000
      5973                   8                -2.0000000
      5974                   8                -2.0000000
      5975                   8                -2.0000000
      5976                   8                -2.0000000
      5977                   8                -2.0000000
      5978                   8                -2.0000000
      5979                   8                -2.0000000
      5980                   8                -2.0000000
      5981                   8                -2.0000000
      5982                   8                -2.0000000
      5983                   8                -2.0000000
      5984                   8                -2.0000000
      5985                   8                -2.0000000
      5986                   8                -2.0000000
      5987                   8                -2.0000000
      5988                   8                -2.0000000
      5989                   8                -2.0000000
      5990                   8                -2.0000000
      5991                   8                -2.0000000
      5992                   8                -2.0000000
      5993                   8                -2.0000000
      5994                   8                -2.0000000
      5995                   8                -2.0000000
      5996                   8                -2.0000000
      5997                   8                -2.0000000
      5998                   8                -2.0000000
      5999                   8                -2.0000000
      6000                   8                -2.0000000
      6001                   8                -2.0000000
      6002                   8                -2.0000000
      6003                   8                -2.0000000
      6004                   8                -2.0000000
      6005                   8                -2.0000000
      6006                   8                -2.0000000
      6007                   8                -2.0000000
      6008                   8                -2.0000000
      6009                   8                -2.0000000
      6010                   8                -2.0000000
      6011                   8                -2.0000000
      6012                   8                -2.0000000
      6013                   8                -2.0000000
      6014                   8                -2.0000000
      6015                   8                -2.0000000
      6016                   8                -2.0000000
      6017                   8                -2.0000000
      6018                   8                -2.0000000
      6019                   8                -2.0000000
      6020                   8                -2.0000000
      6021                   8                -2.0000000
      6022                   8                -2.0000000
      6023                   8                -2.0000000
      6024                   8                -2.0000000
      6025                   8                -2.0000000
      6026                   8                -2.0000000
      6027                   8                -2.0000000
      6028                   8                -2.0000000
      6029                   8                -2.0000000
      6030                   8                -2.0000000
      6031                   8                -2.0000000
      6032                   8                -2.0000000
      6033                   8                -2.0000000
      6034                   8                -2.0000000
      6035                   8                -2.0000000
      6036                   8                -2.0000000
      6037                   8                -2.0000000
      6038                   8                -2.0000000
      6039                   8                -2.0000000
      6040                   8                -2.0000000
      6041                   8                -2.0000000
      6042                   8                -2.0000000
      6043                   8                -2.0000000
      6044                   8                -2.0000000
      6045                   8                -2.0000000
      6046                   8                -2.0000000
      6047                   8                -2.0000000
      6048                   8                -2.0000000
      6049                   8                -2.0000000
      6050                   8                -2.0000000
      6051                   8                -2.0000000
      6052                   8                -2.0000000
      6053                   8                -2.0000000
      6054                   8                -2.0000000
      6055                   8                -2.0000000
      6056                   8                -2.0000000
      6057                   8                -2.0000000
      6058                   8                -2.0000000
      6059                   8                -2.0000000
      6060                   8                -2.0000000
      6061                   8                -2.0000000
      6062                   8                -2.0000000
      6063                   8                -2.0000000
      6064                   8                -2.0000000
      6065                   8                -2.0000000
      6066                   8                -2.0000000
      6067                   8                -2.0000000
      6068                   8                -2.0000000
      6069                   8                -2.0000000
      6070                   8                -2.0000000
      6071                   8                -2.0000000
      6072                   8                -2.0000000
      6073                   8                -2.0000000
      6074                   8                -2.0000000
      6075                   8                -2.0000000
      6076                   8                -2.0000000
      6077                   8                -2.0000000
      6078                   8                -2.0000000
      6079                   8                -2.0000000
      6080                   8                -2.0000000
      6081                   8                -2.0000000
      6082                   8                -2.0000000
      6083                   8                -2.0000000
      6084                   8                -2.0000000
      6085                   8                -2.0000000
      6086                   8                -2.0000000
      6087                   8                -2.0000000
      6088                   8                -2.0000000
      6089                   8                -2.0000000
      6090                   8                -2.0000000
      6091                   8                -2.0000000
      6092                   8                -2.0000000
      6093                   8                -2.0000000
      6094                   8                -2.0000000
      6095                   8                -2.0000000
      6096                   8                -2.0000000
      6097                   8                -2.0000000
      6098                   8                -2.0000000
      6099                   8                -2.0000000
      6100                   8                -2.0000000
      6101                   8                -2.0000000
      6102                   8                -2.0000000
      6103                   8                -2.0000000
      6104                   8                -2.0000000
      6105                   8                -2.0000000
      6106                   8                -2.0000000
      6107                   8                -2.0000000
      6108                   8                -2.0000000
      6109                   8                -2.0000000
      6110                   8                -2.0000000
      6111                   8                -2.0000000
      6112                   8                -2.0000000
      6113                   8                -2.0000000
      6114                   8                -2.0000000
      6115                   8                -2.0000000
      6116                   8                -2.0000000
      6117                   8                -2.0000000
      6118                   8                -2.0000000
      6119                   8                -2.0000000
      6120                   8                -2.0000000
      6121                   8                -2.0000000
      6122                   8                -2.0000000
      6123                   8                -2.0000000
      6124                   8                -2.0000000
      6125                   8                -2.0000000
      6126                   8                -2.0000000
      6127                   8                -2.0000000
      6128                   8                -2.0000000
      6129                   8                -2.0000000
      6130                   8                -2.0000000
      6131                   8                -2.0000000
      6132                   8                -2.0000000
      6133                   8                -2.0000000
      6134                   8                -2.0000000
      6135                   8                -2.0000000
      6136                   8                -2.0000000
      6137                   8                -2.0000000
      6138                   8                -2.0000000
      6139                   8                -2.0000000
      6140                   8                -2.0000000
      6141                   8                -2.0000000
      6142                   8                -2.0000000
      6143                   8                -2.0000000
      6144                   8                -2.0000000
--------------------------------------------------------------------------------


  Peak dynamic memory used =      31.03 MB 


  Timing analysis for GULP :

--------------------------------------------------------------------------------
  Task / Subroutine                                          Time (Seconds)
--------------------------------------------------------------------------------
  Calculation of real space energy and derivatives                0.3932
  Calculation of reaxFF energy and derivatives                    0.4039
  Electronegativity equalisation                                  0.5019
  Symmetry generation of equivalent positions                     0.0003
--------------------------------------------------------------------------------
  Total CPU time                                                  1.3794
--------------------------------------------------------------------------------


  Dump file written as AgI_bulk.grs


  Job Finished at 20:06.33 24th October    2023                               

