********************************************************************************
*                       GENERAL UTILITY LATTICE PROGRAM                        *
*                                 Julian Gale                                  *
*                       Curtin Institute for Computation                       *
*                    School of Molecular and Life Sciences                     *
*                    Curtin University, Western Australia                      *
********************************************************************************
* Version = 6.1.2 * Last modified =   3rd November 2022                        *
********************************************************************************
*  single       - perform a single point run                                   *
*  conv         - constant volume calculation                                  *
*  noelectro    - do not include electrostatic terms despite charges present   *
*  qiterative   - use iterative solution of charges in ReaxFF / EEM / QEq      *
*  nosymmetry   - turn off symmetry after initial structure generation         *
*  full         - generate full unit cell when symmetry is removed             *
*  spatial      - use spatial decomposition algorithm                          *
********************************************************************************
* Preparing supercell for Vaterite (Demichelis, 2012)                          *
* with space group P3_2 21                                                     *
********************************************************************************


  Job Started  at 20:41.16 31st October    2023                               

  Number of CPUs =     1

  Host name      = ip-172-31-18-205.ec2.internal           


  Total number of configurations input =      1

********************************************************************************
*  Input for Configuration =   1                                               *
********************************************************************************

  Formula = Ca1152C1152O3456                                            

  Number of irreducible atoms/shells =    5760


  Total number atoms/shells =    5760

  Dimensionality = 3               :  Bulk   



  Supercell dimensions :  x =   4  y =   8  z =   2

  Cartesian lattice vectors (Angstroms) :

       28.495600    0.000000    0.000000
      -28.495600   49.355827    0.000000
        0.000000    0.000000   50.640600

  Cell parameters (Angstroms/Degrees):

  a =      28.4956    alpha =  90.0000
  b =      56.9912    beta  =  90.0000
  c =      50.6406    gamma = 120.0000

  Initial cell volume =       71222.150330 Angs**3

  Temperature of configuration =   0.00     K 

  Pressure of configuration =         0.000 GPa 

  Fractional coordinates of asymmetric unit :

--------------------------------------------------------------------------------
   No.  Atomic       x           y          z         Charge      Occupancy
        Label      (Frac)      (Frac)     (Frac)        (e)         (Frac)  
--------------------------------------------------------------------------------
      1 Ca    c    0.246827    0.001105    0.125100     0.00000    1.000000    
      2 Ca    c    0.246827    0.001105    0.625100     0.00000    1.000000    
      3 Ca    c    0.246827    0.126105    0.125100     0.00000    1.000000    
      4 Ca    c    0.246827    0.126105    0.625100     0.00000    1.000000    
      5 Ca    c    0.246827    0.251105    0.125100     0.00000    1.000000    
      6 Ca    c    0.246827    0.251105    0.625100     0.00000    1.000000    
      7 Ca    c    0.246827    0.376105    0.125100     0.00000    1.000000    
      8 Ca    c    0.246827    0.376105    0.625100     0.00000    1.000000    
      9 Ca    c    0.246827    0.501105    0.125100     0.00000    1.000000    
     10 Ca    c    0.246827    0.501105    0.625100     0.00000    1.000000    
     11 Ca    c    0.246827    0.626105    0.125100     0.00000    1.000000    
     12 Ca    c    0.246827    0.626105    0.625100     0.00000    1.000000    
     13 Ca    c    0.246827    0.751105    0.125100     0.00000    1.000000    
     14 Ca    c    0.246827    0.751105    0.625100     0.00000    1.000000    
     15 Ca    c    0.246827    0.876105    0.125100     0.00000    1.000000    
     16 Ca    c    0.246827    0.876105    0.625100     0.00000    1.000000    
     17 Ca    c    0.496827    0.001105    0.125100     0.00000    1.000000    
     18 Ca    c    0.496827    0.001105    0.625100     0.00000    1.000000    
     19 Ca    c    0.496827    0.126105    0.125100     0.00000    1.000000    
     20 Ca    c    0.496827    0.126105    0.625100     0.00000    1.000000    
     21 Ca    c    0.496827    0.251105    0.125100     0.00000    1.000000    
     22 Ca    c    0.496827    0.251105    0.625100     0.00000    1.000000    
     23 Ca    c    0.496827    0.376105    0.125100     0.00000    1.000000    
     24 Ca    c    0.496827    0.376105    0.625100     0.00000    1.000000    
     25 Ca    c    0.496827    0.501105    0.125100     0.00000    1.000000    
     26 Ca    c    0.496827    0.501105    0.625100     0.00000    1.000000    
     27 Ca    c    0.496827    0.626105    0.125100     0.00000    1.000000    
     28 Ca    c    0.496827    0.626105    0.625100     0.00000    1.000000    
     29 Ca    c    0.496827    0.751105    0.125100     0.00000    1.000000    
     30 Ca    c    0.496827    0.751105    0.625100     0.00000    1.000000    
     31 Ca    c    0.496827    0.876105    0.125100     0.00000    1.000000    
     32 Ca    c    0.496827    0.876105    0.625100     0.00000    1.000000    
     33 Ca    c    0.746827    0.001105    0.125100     0.00000    1.000000    
     34 Ca    c    0.746827    0.001105    0.625100     0.00000    1.000000    
     35 Ca    c    0.746827    0.126105    0.125100     0.00000    1.000000    
     36 Ca    c    0.746827    0.126105    0.625100     0.00000    1.000000    
     37 Ca    c    0.746827    0.251105    0.125100     0.00000    1.000000    
     38 Ca    c    0.746827    0.251105    0.625100     0.00000    1.000000    
     39 Ca    c    0.746827    0.376105    0.125100     0.00000    1.000000    
     40 Ca    c    0.746827    0.376105    0.625100     0.00000    1.000000    
     41 Ca    c    0.746827    0.501105    0.125100     0.00000    1.000000    
     42 Ca    c    0.746827    0.501105    0.625100     0.00000    1.000000    
     43 Ca    c    0.746827    0.626105    0.125100     0.00000    1.000000    
     44 Ca    c    0.746827    0.626105    0.625100     0.00000    1.000000    
     45 Ca    c    0.746827    0.751105    0.125100     0.00000    1.000000    
     46 Ca    c    0.746827    0.751105    0.625100     0.00000    1.000000    
     47 Ca    c    0.746827    0.876105    0.125100     0.00000    1.000000    
     48 Ca    c    0.746827    0.876105    0.625100     0.00000    1.000000    
     49 Ca    c    0.996827    0.001105    0.125100     0.00000    1.000000    
     50 Ca    c    0.996827    0.001105    0.625100     0.00000    1.000000    
     51 Ca    c    0.996827    0.126105    0.125100     0.00000    1.000000    
     52 Ca    c    0.996827    0.126105    0.625100     0.00000    1.000000    
     53 Ca    c    0.996827    0.251105    0.125100     0.00000    1.000000    
     54 Ca    c    0.996827    0.251105    0.625100     0.00000    1.000000    
     55 Ca    c    0.996827    0.376105    0.125100     0.00000    1.000000    
     56 Ca    c    0.996827    0.376105    0.625100     0.00000    1.000000    
     57 Ca    c    0.996827    0.501105    0.125100     0.00000    1.000000    
     58 Ca    c    0.996827    0.501105    0.625100     0.00000    1.000000    
     59 Ca    c    0.996827    0.626105    0.125100     0.00000    1.000000    
     60 Ca    c    0.996827    0.626105    0.625100     0.00000    1.000000    
     61 Ca    c    0.996827    0.751105    0.125100     0.00000    1.000000    
     62 Ca    c    0.996827    0.751105    0.625100     0.00000    1.000000    
     63 Ca    c    0.996827    0.876105    0.125100     0.00000    1.000000    
     64 Ca    c    0.996827    0.876105    0.625100     0.00000    1.000000    
     65 Ca    c    0.247790    0.122309    0.458433     0.00000    1.000000    
     66 Ca    c    0.247790    0.122309    0.958433     0.00000    1.000000    
     67 Ca    c    0.247790    0.247309    0.458433     0.00000    1.000000    
     68 Ca    c    0.247790    0.247309    0.958433     0.00000    1.000000    
     69 Ca    c    0.247790    0.372309    0.458433     0.00000    1.000000    
     70 Ca    c    0.247790    0.372309    0.958433     0.00000    1.000000    
     71 Ca    c    0.247790    0.497309    0.458433     0.00000    1.000000    
     72 Ca    c    0.247790    0.497309    0.958433     0.00000    1.000000    
     73 Ca    c    0.247790    0.622309    0.458433     0.00000    1.000000    
     74 Ca    c    0.247790    0.622309    0.958433     0.00000    1.000000    
     75 Ca    c    0.247790    0.747309    0.458433     0.00000    1.000000    
     76 Ca    c    0.247790    0.747309    0.958433     0.00000    1.000000    
     77 Ca    c    0.247790    0.872309    0.458433     0.00000    1.000000    
     78 Ca    c    0.247790    0.872309    0.958433     0.00000    1.000000    
     79 Ca    c    0.247790    0.997309    0.458433     0.00000    1.000000    
     80 Ca    c    0.247790    0.997309    0.958433     0.00000    1.000000    
     81 Ca    c    0.497790    0.122309    0.458433     0.00000    1.000000    
     82 Ca    c    0.497790    0.122309    0.958433     0.00000    1.000000    
     83 Ca    c    0.497790    0.247309    0.458433     0.00000    1.000000    
     84 Ca    c    0.497790    0.247309    0.958433     0.00000    1.000000    
     85 Ca    c    0.497790    0.372309    0.458433     0.00000    1.000000    
     86 Ca    c    0.497790    0.372309    0.958433     0.00000    1.000000    
     87 Ca    c    0.497790    0.497309    0.458433     0.00000    1.000000    
     88 Ca    c    0.497790    0.497309    0.958433     0.00000    1.000000    
     89 Ca    c    0.497790    0.622309    0.458433     0.00000    1.000000    
     90 Ca    c    0.497790    0.622309    0.958433     0.00000    1.000000    
     91 Ca    c    0.497790    0.747309    0.458433     0.00000    1.000000    
     92 Ca    c    0.497790    0.747309    0.958433     0.00000    1.000000    
     93 Ca    c    0.497790    0.872309    0.458433     0.00000    1.000000    
     94 Ca    c    0.497790    0.872309    0.958433     0.00000    1.000000    
     95 Ca    c    0.497790    0.997309    0.458433     0.00000    1.000000    
     96 Ca    c    0.497790    0.997309    0.958433     0.00000    1.000000    
     97 Ca    c    0.747790    0.122309    0.458433     0.00000    1.000000    
     98 Ca    c    0.747790    0.122309    0.958433     0.00000    1.000000    
     99 Ca    c    0.747790    0.247309    0.458433     0.00000    1.000000    
    100 Ca    c    0.747790    0.247309    0.958433     0.00000    1.000000    
    101 Ca    c    0.747790    0.372309    0.458433     0.00000    1.000000    
    102 Ca    c    0.747790    0.372309    0.958433     0.00000    1.000000    
    103 Ca    c    0.747790    0.497309    0.458433     0.00000    1.000000    
    104 Ca    c    0.747790    0.497309    0.958433     0.00000    1.000000    
    105 Ca    c    0.747790    0.622309    0.458433     0.00000    1.000000    
    106 Ca    c    0.747790    0.622309    0.958433     0.00000    1.000000    
    107 Ca    c    0.747790    0.747309    0.458433     0.00000    1.000000    
    108 Ca    c    0.747790    0.747309    0.958433     0.00000    1.000000    
    109 Ca    c    0.747790    0.872309    0.458433     0.00000    1.000000    
    110 Ca    c    0.747790    0.872309    0.958433     0.00000    1.000000    
    111 Ca    c    0.747790    0.997309    0.458433     0.00000    1.000000    
    112 Ca    c    0.747790    0.997309    0.958433     0.00000    1.000000    
    113 Ca    c    0.997790    0.122309    0.458433     0.00000    1.000000    
    114 Ca    c    0.997790    0.122309    0.958433     0.00000    1.000000    
    115 Ca    c    0.997790    0.247309    0.458433     0.00000    1.000000    
    116 Ca    c    0.997790    0.247309    0.958433     0.00000    1.000000    
    117 Ca    c    0.997790    0.372309    0.458433     0.00000    1.000000    
    118 Ca    c    0.997790    0.372309    0.958433     0.00000    1.000000    
    119 Ca    c    0.997790    0.497309    0.458433     0.00000    1.000000    
    120 Ca    c    0.997790    0.497309    0.958433     0.00000    1.000000    
    121 Ca    c    0.997790    0.622309    0.458433     0.00000    1.000000    
    122 Ca    c    0.997790    0.622309    0.958433     0.00000    1.000000    
    123 Ca    c    0.997790    0.747309    0.458433     0.00000    1.000000    
    124 Ca    c    0.997790    0.747309    0.958433     0.00000    1.000000    
    125 Ca    c    0.997790    0.872309    0.458433     0.00000    1.000000    
    126 Ca    c    0.997790    0.872309    0.958433     0.00000    1.000000    
    127 Ca    c    0.997790    0.997309    0.458433     0.00000    1.000000    
    128 Ca    c    0.997790    0.997309    0.958433     0.00000    1.000000    
    129 Ca    c    0.005382    0.001586    0.291767     0.00000    1.000000    
    130 Ca    c    0.005382    0.001586    0.791767     0.00000    1.000000    
    131 Ca    c    0.005382    0.126586    0.291767     0.00000    1.000000    
    132 Ca    c    0.005382    0.126586    0.791767     0.00000    1.000000    
    133 Ca    c    0.005382    0.251586    0.291767     0.00000    1.000000    
    134 Ca    c    0.005382    0.251586    0.791767     0.00000    1.000000    
    135 Ca    c    0.005382    0.376586    0.291767     0.00000    1.000000    
    136 Ca    c    0.005382    0.376586    0.791767     0.00000    1.000000    
    137 Ca    c    0.005382    0.501586    0.291767     0.00000    1.000000    
    138 Ca    c    0.005382    0.501586    0.791767     0.00000    1.000000    
    139 Ca    c    0.005382    0.626586    0.291767     0.00000    1.000000    
    140 Ca    c    0.005382    0.626586    0.791767     0.00000    1.000000    
    141 Ca    c    0.005382    0.751586    0.291767     0.00000    1.000000    
    142 Ca    c    0.005382    0.751586    0.791767     0.00000    1.000000    
    143 Ca    c    0.005382    0.876586    0.291767     0.00000    1.000000    
    144 Ca    c    0.005382    0.876586    0.791767     0.00000    1.000000    
    145 Ca    c    0.255382    0.001586    0.291767     0.00000    1.000000    
    146 Ca    c    0.255382    0.001586    0.791767     0.00000    1.000000    
    147 Ca    c    0.255382    0.126586    0.291767     0.00000    1.000000    
    148 Ca    c    0.255382    0.126586    0.791767     0.00000    1.000000    
    149 Ca    c    0.255382    0.251586    0.291767     0.00000    1.000000    
    150 Ca    c    0.255382    0.251586    0.791767     0.00000    1.000000    
    151 Ca    c    0.255382    0.376586    0.291767     0.00000    1.000000    
    152 Ca    c    0.255382    0.376586    0.791767     0.00000    1.000000    
    153 Ca    c    0.255382    0.501586    0.291767     0.00000    1.000000    
    154 Ca    c    0.255382    0.501586    0.791767     0.00000    1.000000    
    155 Ca    c    0.255382    0.626586    0.291767     0.00000    1.000000    
    156 Ca    c    0.255382    0.626586    0.791767     0.00000    1.000000    
    157 Ca    c    0.255382    0.751586    0.291767     0.00000    1.000000    
    158 Ca    c    0.255382    0.751586    0.791767     0.00000    1.000000    
    159 Ca    c    0.255382    0.876586    0.291767     0.00000    1.000000    
    160 Ca    c    0.255382    0.876586    0.791767     0.00000    1.000000    
    161 Ca    c    0.505382    0.001586    0.291767     0.00000    1.000000    
    162 Ca    c    0.505382    0.001586    0.791767     0.00000    1.000000    
    163 Ca    c    0.505382    0.126586    0.291767     0.00000    1.000000    
    164 Ca    c    0.505382    0.126586    0.791767     0.00000    1.000000    
    165 Ca    c    0.505382    0.251586    0.291767     0.00000    1.000000    
    166 Ca    c    0.505382    0.251586    0.791767     0.00000    1.000000    
    167 Ca    c    0.505382    0.376586    0.291767     0.00000    1.000000    
    168 Ca    c    0.505382    0.376586    0.791767     0.00000    1.000000    
    169 Ca    c    0.505382    0.501586    0.291767     0.00000    1.000000    
    170 Ca    c    0.505382    0.501586    0.791767     0.00000    1.000000    
    171 Ca    c    0.505382    0.626586    0.291767     0.00000    1.000000    
    172 Ca    c    0.505382    0.626586    0.791767     0.00000    1.000000    
    173 Ca    c    0.505382    0.751586    0.291767     0.00000    1.000000    
    174 Ca    c    0.505382    0.751586    0.791767     0.00000    1.000000    
    175 Ca    c    0.505382    0.876586    0.291767     0.00000    1.000000    
    176 Ca    c    0.505382    0.876586    0.791767     0.00000    1.000000    
    177 Ca    c    0.755382    0.001586    0.291767     0.00000    1.000000    
    178 Ca    c    0.755382    0.001586    0.791767     0.00000    1.000000    
    179 Ca    c    0.755382    0.126586    0.291767     0.00000    1.000000    
    180 Ca    c    0.755382    0.126586    0.791767     0.00000    1.000000    
    181 Ca    c    0.755382    0.251586    0.291767     0.00000    1.000000    
    182 Ca    c    0.755382    0.251586    0.791767     0.00000    1.000000    
    183 Ca    c    0.755382    0.376586    0.291767     0.00000    1.000000    
    184 Ca    c    0.755382    0.376586    0.791767     0.00000    1.000000    
    185 Ca    c    0.755382    0.501586    0.291767     0.00000    1.000000    
    186 Ca    c    0.755382    0.501586    0.791767     0.00000    1.000000    
    187 Ca    c    0.755382    0.626586    0.291767     0.00000    1.000000    
    188 Ca    c    0.755382    0.626586    0.791767     0.00000    1.000000    
    189 Ca    c    0.755382    0.751586    0.291767     0.00000    1.000000    
    190 Ca    c    0.755382    0.751586    0.791767     0.00000    1.000000    
    191 Ca    c    0.755382    0.876586    0.291767     0.00000    1.000000    
    192 Ca    c    0.755382    0.876586    0.791767     0.00000    1.000000    
    193 Ca    c    0.244618    0.123895    0.041567     0.00000    1.000000    
    194 Ca    c    0.244618    0.123895    0.541567     0.00000    1.000000    
    195 Ca    c    0.244618    0.248895    0.041567     0.00000    1.000000    
    196 Ca    c    0.244618    0.248895    0.541567     0.00000    1.000000    
    197 Ca    c    0.244618    0.373895    0.041567     0.00000    1.000000    
    198 Ca    c    0.244618    0.373895    0.541567     0.00000    1.000000    
    199 Ca    c    0.244618    0.498895    0.041567     0.00000    1.000000    
    200 Ca    c    0.244618    0.498895    0.541567     0.00000    1.000000    
    201 Ca    c    0.244618    0.623895    0.041567     0.00000    1.000000    
    202 Ca    c    0.244618    0.623895    0.541567     0.00000    1.000000    
    203 Ca    c    0.244618    0.748895    0.041567     0.00000    1.000000    
    204 Ca    c    0.244618    0.748895    0.541567     0.00000    1.000000    
    205 Ca    c    0.244618    0.873895    0.041567     0.00000    1.000000    
    206 Ca    c    0.244618    0.873895    0.541567     0.00000    1.000000    
    207 Ca    c    0.244618    0.998895    0.041567     0.00000    1.000000    
    208 Ca    c    0.244618    0.998895    0.541567     0.00000    1.000000    
    209 Ca    c    0.494618    0.123895    0.041567     0.00000    1.000000    
    210 Ca    c    0.494618    0.123895    0.541567     0.00000    1.000000    
    211 Ca    c    0.494618    0.248895    0.041567     0.00000    1.000000    
    212 Ca    c    0.494618    0.248895    0.541567     0.00000    1.000000    
    213 Ca    c    0.494618    0.373895    0.041567     0.00000    1.000000    
    214 Ca    c    0.494618    0.373895    0.541567     0.00000    1.000000    
    215 Ca    c    0.494618    0.498895    0.041567     0.00000    1.000000    
    216 Ca    c    0.494618    0.498895    0.541567     0.00000    1.000000    
    217 Ca    c    0.494618    0.623895    0.041567     0.00000    1.000000    
    218 Ca    c    0.494618    0.623895    0.541567     0.00000    1.000000    
    219 Ca    c    0.494618    0.748895    0.041567     0.00000    1.000000    
    220 Ca    c    0.494618    0.748895    0.541567     0.00000    1.000000    
    221 Ca    c    0.494618    0.873895    0.041567     0.00000    1.000000    
    222 Ca    c    0.494618    0.873895    0.541567     0.00000    1.000000    
    223 Ca    c    0.494618    0.998895    0.041567     0.00000    1.000000    
    224 Ca    c    0.494618    0.998895    0.541567     0.00000    1.000000    
    225 Ca    c    0.744618    0.123895    0.041567     0.00000    1.000000    
    226 Ca    c    0.744618    0.123895    0.541567     0.00000    1.000000    
    227 Ca    c    0.744618    0.248895    0.041567     0.00000    1.000000    
    228 Ca    c    0.744618    0.248895    0.541567     0.00000    1.000000    
    229 Ca    c    0.744618    0.373895    0.041567     0.00000    1.000000    
    230 Ca    c    0.744618    0.373895    0.541567     0.00000    1.000000    
    231 Ca    c    0.744618    0.498895    0.041567     0.00000    1.000000    
    232 Ca    c    0.744618    0.498895    0.541567     0.00000    1.000000    
    233 Ca    c    0.744618    0.623895    0.041567     0.00000    1.000000    
    234 Ca    c    0.744618    0.623895    0.541567     0.00000    1.000000    
    235 Ca    c    0.744618    0.748895    0.041567     0.00000    1.000000    
    236 Ca    c    0.744618    0.748895    0.541567     0.00000    1.000000    
    237 Ca    c    0.744618    0.873895    0.041567     0.00000    1.000000    
    238 Ca    c    0.744618    0.873895    0.541567     0.00000    1.000000    
    239 Ca    c    0.744618    0.998895    0.041567     0.00000    1.000000    
    240 Ca    c    0.744618    0.998895    0.541567     0.00000    1.000000    
    241 Ca    c    0.994618    0.123895    0.041567     0.00000    1.000000    
    242 Ca    c    0.994618    0.123895    0.541567     0.00000    1.000000    
    243 Ca    c    0.994618    0.248895    0.041567     0.00000    1.000000    
    244 Ca    c    0.994618    0.248895    0.541567     0.00000    1.000000    
    245 Ca    c    0.994618    0.373895    0.041567     0.00000    1.000000    
    246 Ca    c    0.994618    0.373895    0.541567     0.00000    1.000000    
    247 Ca    c    0.994618    0.498895    0.041567     0.00000    1.000000    
    248 Ca    c    0.994618    0.498895    0.541567     0.00000    1.000000    
    249 Ca    c    0.994618    0.623895    0.041567     0.00000    1.000000    
    250 Ca    c    0.994618    0.623895    0.541567     0.00000    1.000000    
    251 Ca    c    0.994618    0.748895    0.041567     0.00000    1.000000    
    252 Ca    c    0.994618    0.748895    0.541567     0.00000    1.000000    
    253 Ca    c    0.994618    0.873895    0.041567     0.00000    1.000000    
    254 Ca    c    0.994618    0.873895    0.541567     0.00000    1.000000    
    255 Ca    c    0.994618    0.998895    0.041567     0.00000    1.000000    
    256 Ca    c    0.994618    0.998895    0.541567     0.00000    1.000000    
    257 Ca    c    0.003173    0.002691    0.208233     0.00000    1.000000    
    258 Ca    c    0.003173    0.002691    0.708233     0.00000    1.000000    
    259 Ca    c    0.003173    0.127691    0.208233     0.00000    1.000000    
    260 Ca    c    0.003173    0.127691    0.708233     0.00000    1.000000    
    261 Ca    c    0.003173    0.252691    0.208233     0.00000    1.000000    
    262 Ca    c    0.003173    0.252691    0.708233     0.00000    1.000000    
    263 Ca    c    0.003173    0.377691    0.208233     0.00000    1.000000    
    264 Ca    c    0.003173    0.377691    0.708233     0.00000    1.000000    
    265 Ca    c    0.003173    0.502691    0.208233     0.00000    1.000000    
    266 Ca    c    0.003173    0.502691    0.708233     0.00000    1.000000    
    267 Ca    c    0.003173    0.627691    0.208233     0.00000    1.000000    
    268 Ca    c    0.003173    0.627691    0.708233     0.00000    1.000000    
    269 Ca    c    0.003173    0.752691    0.208233     0.00000    1.000000    
    270 Ca    c    0.003173    0.752691    0.708233     0.00000    1.000000    
    271 Ca    c    0.003173    0.877691    0.208233     0.00000    1.000000    
    272 Ca    c    0.003173    0.877691    0.708233     0.00000    1.000000    
    273 Ca    c    0.253173    0.002691    0.208233     0.00000    1.000000    
    274 Ca    c    0.253173    0.002691    0.708233     0.00000    1.000000    
    275 Ca    c    0.253173    0.127691    0.208233     0.00000    1.000000    
    276 Ca    c    0.253173    0.127691    0.708233     0.00000    1.000000    
    277 Ca    c    0.253173    0.252691    0.208233     0.00000    1.000000    
    278 Ca    c    0.253173    0.252691    0.708233     0.00000    1.000000    
    279 Ca    c    0.253173    0.377691    0.208233     0.00000    1.000000    
    280 Ca    c    0.253173    0.377691    0.708233     0.00000    1.000000    
    281 Ca    c    0.253173    0.502691    0.208233     0.00000    1.000000    
    282 Ca    c    0.253173    0.502691    0.708233     0.00000    1.000000    
    283 Ca    c    0.253173    0.627691    0.208233     0.00000    1.000000    
    284 Ca    c    0.253173    0.627691    0.708233     0.00000    1.000000    
    285 Ca    c    0.253173    0.752691    0.208233     0.00000    1.000000    
    286 Ca    c    0.253173    0.752691    0.708233     0.00000    1.000000    
    287 Ca    c    0.253173    0.877691    0.208233     0.00000    1.000000    
    288 Ca    c    0.253173    0.877691    0.708233     0.00000    1.000000    
    289 Ca    c    0.503173    0.002691    0.208233     0.00000    1.000000    
    290 Ca    c    0.503173    0.002691    0.708233     0.00000    1.000000    
    291 Ca    c    0.503173    0.127691    0.208233     0.00000    1.000000    
    292 Ca    c    0.503173    0.127691    0.708233     0.00000    1.000000    
    293 Ca    c    0.503173    0.252691    0.208233     0.00000    1.000000    
    294 Ca    c    0.503173    0.252691    0.708233     0.00000    1.000000    
    295 Ca    c    0.503173    0.377691    0.208233     0.00000    1.000000    
    296 Ca    c    0.503173    0.377691    0.708233     0.00000    1.000000    
    297 Ca    c    0.503173    0.502691    0.208233     0.00000    1.000000    
    298 Ca    c    0.503173    0.502691    0.708233     0.00000    1.000000    
    299 Ca    c    0.503173    0.627691    0.208233     0.00000    1.000000    
    300 Ca    c    0.503173    0.627691    0.708233     0.00000    1.000000    
    301 Ca    c    0.503173    0.752691    0.208233     0.00000    1.000000    
    302 Ca    c    0.503173    0.752691    0.708233     0.00000    1.000000    
    303 Ca    c    0.503173    0.877691    0.208233     0.00000    1.000000    
    304 Ca    c    0.503173    0.877691    0.708233     0.00000    1.000000    
    305 Ca    c    0.753173    0.002691    0.208233     0.00000    1.000000    
    306 Ca    c    0.753173    0.002691    0.708233     0.00000    1.000000    
    307 Ca    c    0.753173    0.127691    0.208233     0.00000    1.000000    
    308 Ca    c    0.753173    0.127691    0.708233     0.00000    1.000000    
    309 Ca    c    0.753173    0.252691    0.208233     0.00000    1.000000    
    310 Ca    c    0.753173    0.252691    0.708233     0.00000    1.000000    
    311 Ca    c    0.753173    0.377691    0.208233     0.00000    1.000000    
    312 Ca    c    0.753173    0.377691    0.708233     0.00000    1.000000    
    313 Ca    c    0.753173    0.502691    0.208233     0.00000    1.000000    
    314 Ca    c    0.753173    0.502691    0.708233     0.00000    1.000000    
    315 Ca    c    0.753173    0.627691    0.208233     0.00000    1.000000    
    316 Ca    c    0.753173    0.627691    0.708233     0.00000    1.000000    
    317 Ca    c    0.753173    0.752691    0.208233     0.00000    1.000000    
    318 Ca    c    0.753173    0.752691    0.708233     0.00000    1.000000    
    319 Ca    c    0.753173    0.877691    0.208233     0.00000    1.000000    
    320 Ca    c    0.753173    0.877691    0.708233     0.00000    1.000000    
    321 Ca    c    0.002210    0.123414    0.374900     0.00000    1.000000    
    322 Ca    c    0.002210    0.123414    0.874900     0.00000    1.000000    
    323 Ca    c    0.002210    0.248414    0.374900     0.00000    1.000000    
    324 Ca    c    0.002210    0.248414    0.874900     0.00000    1.000000    
    325 Ca    c    0.002210    0.373414    0.374900     0.00000    1.000000    
    326 Ca    c    0.002210    0.373414    0.874900     0.00000    1.000000    
    327 Ca    c    0.002210    0.498414    0.374900     0.00000    1.000000    
    328 Ca    c    0.002210    0.498414    0.874900     0.00000    1.000000    
    329 Ca    c    0.002210    0.623414    0.374900     0.00000    1.000000    
    330 Ca    c    0.002210    0.623414    0.874900     0.00000    1.000000    
    331 Ca    c    0.002210    0.748414    0.374900     0.00000    1.000000    
    332 Ca    c    0.002210    0.748414    0.874900     0.00000    1.000000    
    333 Ca    c    0.002210    0.873414    0.374900     0.00000    1.000000    
    334 Ca    c    0.002210    0.873414    0.874900     0.00000    1.000000    
    335 Ca    c    0.002210    0.998414    0.374900     0.00000    1.000000    
    336 Ca    c    0.002210    0.998414    0.874900     0.00000    1.000000    
    337 Ca    c    0.252210    0.123414    0.374900     0.00000    1.000000    
    338 Ca    c    0.252210    0.123414    0.874900     0.00000    1.000000    
    339 Ca    c    0.252210    0.248414    0.374900     0.00000    1.000000    
    340 Ca    c    0.252210    0.248414    0.874900     0.00000    1.000000    
    341 Ca    c    0.252210    0.373414    0.374900     0.00000    1.000000    
    342 Ca    c    0.252210    0.373414    0.874900     0.00000    1.000000    
    343 Ca    c    0.252210    0.498414    0.374900     0.00000    1.000000    
    344 Ca    c    0.252210    0.498414    0.874900     0.00000    1.000000    
    345 Ca    c    0.252210    0.623414    0.374900     0.00000    1.000000    
    346 Ca    c    0.252210    0.623414    0.874900     0.00000    1.000000    
    347 Ca    c    0.252210    0.748414    0.374900     0.00000    1.000000    
    348 Ca    c    0.252210    0.748414    0.874900     0.00000    1.000000    
    349 Ca    c    0.252210    0.873414    0.374900     0.00000    1.000000    
    350 Ca    c    0.252210    0.873414    0.874900     0.00000    1.000000    
    351 Ca    c    0.252210    0.998414    0.374900     0.00000    1.000000    
    352 Ca    c    0.252210    0.998414    0.874900     0.00000    1.000000    
    353 Ca    c    0.502210    0.123414    0.374900     0.00000    1.000000    
    354 Ca    c    0.502210    0.123414    0.874900     0.00000    1.000000    
    355 Ca    c    0.502210    0.248414    0.374900     0.00000    1.000000    
    356 Ca    c    0.502210    0.248414    0.874900     0.00000    1.000000    
    357 Ca    c    0.502210    0.373414    0.374900     0.00000    1.000000    
    358 Ca    c    0.502210    0.373414    0.874900     0.00000    1.000000    
    359 Ca    c    0.502210    0.498414    0.374900     0.00000    1.000000    
    360 Ca    c    0.502210    0.498414    0.874900     0.00000    1.000000    
    361 Ca    c    0.502210    0.623414    0.374900     0.00000    1.000000    
    362 Ca    c    0.502210    0.623414    0.874900     0.00000    1.000000    
    363 Ca    c    0.502210    0.748414    0.374900     0.00000    1.000000    
    364 Ca    c    0.502210    0.748414    0.874900     0.00000    1.000000    
    365 Ca    c    0.502210    0.873414    0.374900     0.00000    1.000000    
    366 Ca    c    0.502210    0.873414    0.874900     0.00000    1.000000    
    367 Ca    c    0.502210    0.998414    0.374900     0.00000    1.000000    
    368 Ca    c    0.502210    0.998414    0.874900     0.00000    1.000000    
    369 Ca    c    0.752210    0.123414    0.374900     0.00000    1.000000    
    370 Ca    c    0.752210    0.123414    0.874900     0.00000    1.000000    
    371 Ca    c    0.752210    0.248414    0.374900     0.00000    1.000000    
    372 Ca    c    0.752210    0.248414    0.874900     0.00000    1.000000    
    373 Ca    c    0.752210    0.373414    0.374900     0.00000    1.000000    
    374 Ca    c    0.752210    0.373414    0.874900     0.00000    1.000000    
    375 Ca    c    0.752210    0.498414    0.374900     0.00000    1.000000    
    376 Ca    c    0.752210    0.498414    0.874900     0.00000    1.000000    
    377 Ca    c    0.752210    0.623414    0.374900     0.00000    1.000000    
    378 Ca    c    0.752210    0.623414    0.874900     0.00000    1.000000    
    379 Ca    c    0.752210    0.748414    0.374900     0.00000    1.000000    
    380 Ca    c    0.752210    0.748414    0.874900     0.00000    1.000000    
    381 Ca    c    0.752210    0.873414    0.374900     0.00000    1.000000    
    382 Ca    c    0.752210    0.873414    0.874900     0.00000    1.000000    
    383 Ca    c    0.752210    0.998414    0.374900     0.00000    1.000000    
    384 Ca    c    0.752210    0.998414    0.874900     0.00000    1.000000    
    385 Ca    c    0.167345    0.037115    0.126875     0.00000    1.000000    
    386 Ca    c    0.167345    0.037115    0.626875     0.00000    1.000000    
    387 Ca    c    0.167345    0.162115    0.126875     0.00000    1.000000    
    388 Ca    c    0.167345    0.162115    0.626875     0.00000    1.000000    
    389 Ca    c    0.167345    0.287115    0.126875     0.00000    1.000000    
    390 Ca    c    0.167345    0.287115    0.626875     0.00000    1.000000    
    391 Ca    c    0.167345    0.412115    0.126875     0.00000    1.000000    
    392 Ca    c    0.167345    0.412115    0.626875     0.00000    1.000000    
    393 Ca    c    0.167345    0.537115    0.126875     0.00000    1.000000    
    394 Ca    c    0.167345    0.537115    0.626875     0.00000    1.000000    
    395 Ca    c    0.167345    0.662115    0.126875     0.00000    1.000000    
    396 Ca    c    0.167345    0.662115    0.626875     0.00000    1.000000    
    397 Ca    c    0.167345    0.787115    0.126875     0.00000    1.000000    
    398 Ca    c    0.167345    0.787115    0.626875     0.00000    1.000000    
    399 Ca    c    0.167345    0.912115    0.126875     0.00000    1.000000    
    400 Ca    c    0.167345    0.912115    0.626875     0.00000    1.000000    
    401 Ca    c    0.417345    0.037115    0.126875     0.00000    1.000000    
    402 Ca    c    0.417345    0.037115    0.626875     0.00000    1.000000    
    403 Ca    c    0.417345    0.162115    0.126875     0.00000    1.000000    
    404 Ca    c    0.417345    0.162115    0.626875     0.00000    1.000000    
    405 Ca    c    0.417345    0.287115    0.126875     0.00000    1.000000    
    406 Ca    c    0.417345    0.287115    0.626875     0.00000    1.000000    
    407 Ca    c    0.417345    0.412115    0.126875     0.00000    1.000000    
    408 Ca    c    0.417345    0.412115    0.626875     0.00000    1.000000    
    409 Ca    c    0.417345    0.537115    0.126875     0.00000    1.000000    
    410 Ca    c    0.417345    0.537115    0.626875     0.00000    1.000000    
    411 Ca    c    0.417345    0.662115    0.126875     0.00000    1.000000    
    412 Ca    c    0.417345    0.662115    0.626875     0.00000    1.000000    
    413 Ca    c    0.417345    0.787115    0.126875     0.00000    1.000000    
    414 Ca    c    0.417345    0.787115    0.626875     0.00000    1.000000    
    415 Ca    c    0.417345    0.912115    0.126875     0.00000    1.000000    
    416 Ca    c    0.417345    0.912115    0.626875     0.00000    1.000000    
    417 Ca    c    0.667345    0.037115    0.126875     0.00000    1.000000    
    418 Ca    c    0.667345    0.037115    0.626875     0.00000    1.000000    
    419 Ca    c    0.667345    0.162115    0.126875     0.00000    1.000000    
    420 Ca    c    0.667345    0.162115    0.626875     0.00000    1.000000    
    421 Ca    c    0.667345    0.287115    0.126875     0.00000    1.000000    
    422 Ca    c    0.667345    0.287115    0.626875     0.00000    1.000000    
    423 Ca    c    0.667345    0.412115    0.126875     0.00000    1.000000    
    424 Ca    c    0.667345    0.412115    0.626875     0.00000    1.000000    
    425 Ca    c    0.667345    0.537115    0.126875     0.00000    1.000000    
    426 Ca    c    0.667345    0.537115    0.626875     0.00000    1.000000    
    427 Ca    c    0.667345    0.662115    0.126875     0.00000    1.000000    
    428 Ca    c    0.667345    0.662115    0.626875     0.00000    1.000000    
    429 Ca    c    0.667345    0.787115    0.126875     0.00000    1.000000    
    430 Ca    c    0.667345    0.787115    0.626875     0.00000    1.000000    
    431 Ca    c    0.667345    0.912115    0.126875     0.00000    1.000000    
    432 Ca    c    0.667345    0.912115    0.626875     0.00000    1.000000    
    433 Ca    c    0.917345    0.037115    0.126875     0.00000    1.000000    
    434 Ca    c    0.917345    0.037115    0.626875     0.00000    1.000000    
    435 Ca    c    0.917345    0.162115    0.126875     0.00000    1.000000    
    436 Ca    c    0.917345    0.162115    0.626875     0.00000    1.000000    
    437 Ca    c    0.917345    0.287115    0.126875     0.00000    1.000000    
    438 Ca    c    0.917345    0.287115    0.626875     0.00000    1.000000    
    439 Ca    c    0.917345    0.412115    0.126875     0.00000    1.000000    
    440 Ca    c    0.917345    0.412115    0.626875     0.00000    1.000000    
    441 Ca    c    0.917345    0.537115    0.126875     0.00000    1.000000    
    442 Ca    c    0.917345    0.537115    0.626875     0.00000    1.000000    
    443 Ca    c    0.917345    0.662115    0.126875     0.00000    1.000000    
    444 Ca    c    0.917345    0.662115    0.626875     0.00000    1.000000    
    445 Ca    c    0.917345    0.787115    0.126875     0.00000    1.000000    
    446 Ca    c    0.917345    0.787115    0.626875     0.00000    1.000000    
    447 Ca    c    0.917345    0.912115    0.126875     0.00000    1.000000    
    448 Ca    c    0.917345    0.912115    0.626875     0.00000    1.000000    
    449 Ca    c    0.175770    0.046558    0.460208     0.00000    1.000000    
    450 Ca    c    0.175770    0.046558    0.960208     0.00000    1.000000    
    451 Ca    c    0.175770    0.171558    0.460208     0.00000    1.000000    
    452 Ca    c    0.175770    0.171558    0.960208     0.00000    1.000000    
    453 Ca    c    0.175770    0.296558    0.460208     0.00000    1.000000    
    454 Ca    c    0.175770    0.296558    0.960208     0.00000    1.000000    
    455 Ca    c    0.175770    0.421558    0.460208     0.00000    1.000000    
    456 Ca    c    0.175770    0.421558    0.960208     0.00000    1.000000    
    457 Ca    c    0.175770    0.546558    0.460208     0.00000    1.000000    
    458 Ca    c    0.175770    0.546558    0.960208     0.00000    1.000000    
    459 Ca    c    0.175770    0.671558    0.460208     0.00000    1.000000    
    460 Ca    c    0.175770    0.671558    0.960208     0.00000    1.000000    
    461 Ca    c    0.175770    0.796558    0.460208     0.00000    1.000000    
    462 Ca    c    0.175770    0.796558    0.960208     0.00000    1.000000    
    463 Ca    c    0.175770    0.921558    0.460208     0.00000    1.000000    
    464 Ca    c    0.175770    0.921558    0.960208     0.00000    1.000000    
    465 Ca    c    0.425770    0.046558    0.460208     0.00000    1.000000    
    466 Ca    c    0.425770    0.046558    0.960208     0.00000    1.000000    
    467 Ca    c    0.425770    0.171558    0.460208     0.00000    1.000000    
    468 Ca    c    0.425770    0.171558    0.960208     0.00000    1.000000    
    469 Ca    c    0.425770    0.296558    0.460208     0.00000    1.000000    
    470 Ca    c    0.425770    0.296558    0.960208     0.00000    1.000000    
    471 Ca    c    0.425770    0.421558    0.460208     0.00000    1.000000    
    472 Ca    c    0.425770    0.421558    0.960208     0.00000    1.000000    
    473 Ca    c    0.425770    0.546558    0.460208     0.00000    1.000000    
    474 Ca    c    0.425770    0.546558    0.960208     0.00000    1.000000    
    475 Ca    c    0.425770    0.671558    0.460208     0.00000    1.000000    
    476 Ca    c    0.425770    0.671558    0.960208     0.00000    1.000000    
    477 Ca    c    0.425770    0.796558    0.460208     0.00000    1.000000    
    478 Ca    c    0.425770    0.796558    0.960208     0.00000    1.000000    
    479 Ca    c    0.425770    0.921558    0.460208     0.00000    1.000000    
    480 Ca    c    0.425770    0.921558    0.960208     0.00000    1.000000    
    481 Ca    c    0.675770    0.046558    0.460208     0.00000    1.000000    
    482 Ca    c    0.675770    0.046558    0.960208     0.00000    1.000000    
    483 Ca    c    0.675770    0.171558    0.460208     0.00000    1.000000    
    484 Ca    c    0.675770    0.171558    0.960208     0.00000    1.000000    
    485 Ca    c    0.675770    0.296558    0.460208     0.00000    1.000000    
    486 Ca    c    0.675770    0.296558    0.960208     0.00000    1.000000    
    487 Ca    c    0.675770    0.421558    0.460208     0.00000    1.000000    
    488 Ca    c    0.675770    0.421558    0.960208     0.00000    1.000000    
    489 Ca    c    0.675770    0.546558    0.460208     0.00000    1.000000    
    490 Ca    c    0.675770    0.546558    0.960208     0.00000    1.000000    
    491 Ca    c    0.675770    0.671558    0.460208     0.00000    1.000000    
    492 Ca    c    0.675770    0.671558    0.960208     0.00000    1.000000    
    493 Ca    c    0.675770    0.796558    0.460208     0.00000    1.000000    
    494 Ca    c    0.675770    0.796558    0.960208     0.00000    1.000000    
    495 Ca    c    0.675770    0.921558    0.460208     0.00000    1.000000    
    496 Ca    c    0.675770    0.921558    0.960208     0.00000    1.000000    
    497 Ca    c    0.925770    0.046558    0.460208     0.00000    1.000000    
    498 Ca    c    0.925770    0.046558    0.960208     0.00000    1.000000    
    499 Ca    c    0.925770    0.171558    0.460208     0.00000    1.000000    
    500 Ca    c    0.925770    0.171558    0.960208     0.00000    1.000000    
    501 Ca    c    0.925770    0.296558    0.460208     0.00000    1.000000    
    502 Ca    c    0.925770    0.296558    0.960208     0.00000    1.000000    
    503 Ca    c    0.925770    0.421558    0.460208     0.00000    1.000000    
    504 Ca    c    0.925770    0.421558    0.960208     0.00000    1.000000    
    505 Ca    c    0.925770    0.546558    0.460208     0.00000    1.000000    
    506 Ca    c    0.925770    0.546558    0.960208     0.00000    1.000000    
    507 Ca    c    0.925770    0.671558    0.460208     0.00000    1.000000    
    508 Ca    c    0.925770    0.671558    0.960208     0.00000    1.000000    
    509 Ca    c    0.925770    0.796558    0.460208     0.00000    1.000000    
    510 Ca    c    0.925770    0.796558    0.960208     0.00000    1.000000    
    511 Ca    c    0.925770    0.921558    0.460208     0.00000    1.000000    
    512 Ca    c    0.925770    0.921558    0.960208     0.00000    1.000000    
    513 Ca    c    0.156885    0.041327    0.293542     0.00000    1.000000    
    514 Ca    c    0.156885    0.041327    0.793542     0.00000    1.000000    
    515 Ca    c    0.156885    0.166327    0.293542     0.00000    1.000000    
    516 Ca    c    0.156885    0.166327    0.793542     0.00000    1.000000    
    517 Ca    c    0.156885    0.291327    0.293542     0.00000    1.000000    
    518 Ca    c    0.156885    0.291327    0.793542     0.00000    1.000000    
    519 Ca    c    0.156885    0.416327    0.293542     0.00000    1.000000    
    520 Ca    c    0.156885    0.416327    0.793542     0.00000    1.000000    
    521 Ca    c    0.156885    0.541327    0.293542     0.00000    1.000000    
    522 Ca    c    0.156885    0.541327    0.793542     0.00000    1.000000    
    523 Ca    c    0.156885    0.666327    0.293542     0.00000    1.000000    
    524 Ca    c    0.156885    0.666327    0.793542     0.00000    1.000000    
    525 Ca    c    0.156885    0.791327    0.293542     0.00000    1.000000    
    526 Ca    c    0.156885    0.791327    0.793542     0.00000    1.000000    
    527 Ca    c    0.156885    0.916327    0.293542     0.00000    1.000000    
    528 Ca    c    0.156885    0.916327    0.793542     0.00000    1.000000    
    529 Ca    c    0.406885    0.041327    0.293542     0.00000    1.000000    
    530 Ca    c    0.406885    0.041327    0.793542     0.00000    1.000000    
    531 Ca    c    0.406885    0.166327    0.293542     0.00000    1.000000    
    532 Ca    c    0.406885    0.166327    0.793542     0.00000    1.000000    
    533 Ca    c    0.406885    0.291327    0.293542     0.00000    1.000000    
    534 Ca    c    0.406885    0.291327    0.793542     0.00000    1.000000    
    535 Ca    c    0.406885    0.416327    0.293542     0.00000    1.000000    
    536 Ca    c    0.406885    0.416327    0.793542     0.00000    1.000000    
    537 Ca    c    0.406885    0.541327    0.293542     0.00000    1.000000    
    538 Ca    c    0.406885    0.541327    0.793542     0.00000    1.000000    
    539 Ca    c    0.406885    0.666327    0.293542     0.00000    1.000000    
    540 Ca    c    0.406885    0.666327    0.793542     0.00000    1.000000    
    541 Ca    c    0.406885    0.791327    0.293542     0.00000    1.000000    
    542 Ca    c    0.406885    0.791327    0.793542     0.00000    1.000000    
    543 Ca    c    0.406885    0.916327    0.293542     0.00000    1.000000    
    544 Ca    c    0.406885    0.916327    0.793542     0.00000    1.000000    
    545 Ca    c    0.656885    0.041327    0.293542     0.00000    1.000000    
    546 Ca    c    0.656885    0.041327    0.793542     0.00000    1.000000    
    547 Ca    c    0.656885    0.166327    0.293542     0.00000    1.000000    
    548 Ca    c    0.656885    0.166327    0.793542     0.00000    1.000000    
    549 Ca    c    0.656885    0.291327    0.293542     0.00000    1.000000    
    550 Ca    c    0.656885    0.291327    0.793542     0.00000    1.000000    
    551 Ca    c    0.656885    0.416327    0.293542     0.00000    1.000000    
    552 Ca    c    0.656885    0.416327    0.793542     0.00000    1.000000    
    553 Ca    c    0.656885    0.541327    0.293542     0.00000    1.000000    
    554 Ca    c    0.656885    0.541327    0.793542     0.00000    1.000000    
    555 Ca    c    0.656885    0.666327    0.293542     0.00000    1.000000    
    556 Ca    c    0.656885    0.666327    0.793542     0.00000    1.000000    
    557 Ca    c    0.656885    0.791327    0.293542     0.00000    1.000000    
    558 Ca    c    0.656885    0.791327    0.793542     0.00000    1.000000    
    559 Ca    c    0.656885    0.916327    0.293542     0.00000    1.000000    
    560 Ca    c    0.656885    0.916327    0.793542     0.00000    1.000000    
    561 Ca    c    0.906885    0.041327    0.293542     0.00000    1.000000    
    562 Ca    c    0.906885    0.041327    0.793542     0.00000    1.000000    
    563 Ca    c    0.906885    0.166327    0.293542     0.00000    1.000000    
    564 Ca    c    0.906885    0.166327    0.793542     0.00000    1.000000    
    565 Ca    c    0.906885    0.291327    0.293542     0.00000    1.000000    
    566 Ca    c    0.906885    0.291327    0.793542     0.00000    1.000000    
    567 Ca    c    0.906885    0.416327    0.293542     0.00000    1.000000    
    568 Ca    c    0.906885    0.416327    0.793542     0.00000    1.000000    
    569 Ca    c    0.906885    0.541327    0.293542     0.00000    1.000000    
    570 Ca    c    0.906885    0.541327    0.793542     0.00000    1.000000    
    571 Ca    c    0.906885    0.666327    0.293542     0.00000    1.000000    
    572 Ca    c    0.906885    0.666327    0.793542     0.00000    1.000000    
    573 Ca    c    0.906885    0.791327    0.293542     0.00000    1.000000    
    574 Ca    c    0.906885    0.791327    0.793542     0.00000    1.000000    
    575 Ca    c    0.906885    0.916327    0.293542     0.00000    1.000000    
    576 Ca    c    0.906885    0.916327    0.793542     0.00000    1.000000    
    577 Ca    c    0.093115    0.087885    0.039792     0.00000    1.000000    
    578 Ca    c    0.093115    0.087885    0.539792     0.00000    1.000000    
    579 Ca    c    0.093115    0.212885    0.039792     0.00000    1.000000    
    580 Ca    c    0.093115    0.212885    0.539792     0.00000    1.000000    
    581 Ca    c    0.093115    0.337885    0.039792     0.00000    1.000000    
    582 Ca    c    0.093115    0.337885    0.539792     0.00000    1.000000    
    583 Ca    c    0.093115    0.462885    0.039792     0.00000    1.000000    
    584 Ca    c    0.093115    0.462885    0.539792     0.00000    1.000000    
    585 Ca    c    0.093115    0.587885    0.039792     0.00000    1.000000    
    586 Ca    c    0.093115    0.587885    0.539792     0.00000    1.000000    
    587 Ca    c    0.093115    0.712885    0.039792     0.00000    1.000000    
    588 Ca    c    0.093115    0.712885    0.539792     0.00000    1.000000    
    589 Ca    c    0.093115    0.837885    0.039792     0.00000    1.000000    
    590 Ca    c    0.093115    0.837885    0.539792     0.00000    1.000000    
    591 Ca    c    0.093115    0.962885    0.039792     0.00000    1.000000    
    592 Ca    c    0.093115    0.962885    0.539792     0.00000    1.000000    
    593 Ca    c    0.343115    0.087885    0.039792     0.00000    1.000000    
    594 Ca    c    0.343115    0.087885    0.539792     0.00000    1.000000    
    595 Ca    c    0.343115    0.212885    0.039792     0.00000    1.000000    
    596 Ca    c    0.343115    0.212885    0.539792     0.00000    1.000000    
    597 Ca    c    0.343115    0.337885    0.039792     0.00000    1.000000    
    598 Ca    c    0.343115    0.337885    0.539792     0.00000    1.000000    
    599 Ca    c    0.343115    0.462885    0.039792     0.00000    1.000000    
    600 Ca    c    0.343115    0.462885    0.539792     0.00000    1.000000    
    601 Ca    c    0.343115    0.587885    0.039792     0.00000    1.000000    
    602 Ca    c    0.343115    0.587885    0.539792     0.00000    1.000000    
    603 Ca    c    0.343115    0.712885    0.039792     0.00000    1.000000    
    604 Ca    c    0.343115    0.712885    0.539792     0.00000    1.000000    
    605 Ca    c    0.343115    0.837885    0.039792     0.00000    1.000000    
    606 Ca    c    0.343115    0.837885    0.539792     0.00000    1.000000    
    607 Ca    c    0.343115    0.962885    0.039792     0.00000    1.000000    
    608 Ca    c    0.343115    0.962885    0.539792     0.00000    1.000000    
    609 Ca    c    0.593115    0.087885    0.039792     0.00000    1.000000    
    610 Ca    c    0.593115    0.087885    0.539792     0.00000    1.000000    
    611 Ca    c    0.593115    0.212885    0.039792     0.00000    1.000000    
    612 Ca    c    0.593115    0.212885    0.539792     0.00000    1.000000    
    613 Ca    c    0.593115    0.337885    0.039792     0.00000    1.000000    
    614 Ca    c    0.593115    0.337885    0.539792     0.00000    1.000000    
    615 Ca    c    0.593115    0.462885    0.039792     0.00000    1.000000    
    616 Ca    c    0.593115    0.462885    0.539792     0.00000    1.000000    
    617 Ca    c    0.593115    0.587885    0.039792     0.00000    1.000000    
    618 Ca    c    0.593115    0.587885    0.539792     0.00000    1.000000    
    619 Ca    c    0.593115    0.712885    0.039792     0.00000    1.000000    
    620 Ca    c    0.593115    0.712885    0.539792     0.00000    1.000000    
    621 Ca    c    0.593115    0.837885    0.039792     0.00000    1.000000    
    622 Ca    c    0.593115    0.837885    0.539792     0.00000    1.000000    
    623 Ca    c    0.593115    0.962885    0.039792     0.00000    1.000000    
    624 Ca    c    0.593115    0.962885    0.539792     0.00000    1.000000    
    625 Ca    c    0.843115    0.087885    0.039792     0.00000    1.000000    
    626 Ca    c    0.843115    0.087885    0.539792     0.00000    1.000000    
    627 Ca    c    0.843115    0.212885    0.039792     0.00000    1.000000    
    628 Ca    c    0.843115    0.212885    0.539792     0.00000    1.000000    
    629 Ca    c    0.843115    0.337885    0.039792     0.00000    1.000000    
    630 Ca    c    0.843115    0.337885    0.539792     0.00000    1.000000    
    631 Ca    c    0.843115    0.462885    0.039792     0.00000    1.000000    
    632 Ca    c    0.843115    0.462885    0.539792     0.00000    1.000000    
    633 Ca    c    0.843115    0.587885    0.039792     0.00000    1.000000    
    634 Ca    c    0.843115    0.587885    0.539792     0.00000    1.000000    
    635 Ca    c    0.843115    0.712885    0.039792     0.00000    1.000000    
    636 Ca    c    0.843115    0.712885    0.539792     0.00000    1.000000    
    637 Ca    c    0.843115    0.837885    0.039792     0.00000    1.000000    
    638 Ca    c    0.843115    0.837885    0.539792     0.00000    1.000000    
    639 Ca    c    0.843115    0.962885    0.039792     0.00000    1.000000    
    640 Ca    c    0.843115    0.962885    0.539792     0.00000    1.000000    
    641 Ca    c    0.082655    0.078442    0.206458     0.00000    1.000000    
    642 Ca    c    0.082655    0.078442    0.706458     0.00000    1.000000    
    643 Ca    c    0.082655    0.203442    0.206458     0.00000    1.000000    
    644 Ca    c    0.082655    0.203442    0.706458     0.00000    1.000000    
    645 Ca    c    0.082655    0.328442    0.206458     0.00000    1.000000    
    646 Ca    c    0.082655    0.328442    0.706458     0.00000    1.000000    
    647 Ca    c    0.082655    0.453442    0.206458     0.00000    1.000000    
    648 Ca    c    0.082655    0.453442    0.706458     0.00000    1.000000    
    649 Ca    c    0.082655    0.578442    0.206458     0.00000    1.000000    
    650 Ca    c    0.082655    0.578442    0.706458     0.00000    1.000000    
    651 Ca    c    0.082655    0.703442    0.206458     0.00000    1.000000    
    652 Ca    c    0.082655    0.703442    0.706458     0.00000    1.000000    
    653 Ca    c    0.082655    0.828442    0.206458     0.00000    1.000000    
    654 Ca    c    0.082655    0.828442    0.706458     0.00000    1.000000    
    655 Ca    c    0.082655    0.953442    0.206458     0.00000    1.000000    
    656 Ca    c    0.082655    0.953442    0.706458     0.00000    1.000000    
    657 Ca    c    0.332655    0.078442    0.206458     0.00000    1.000000    
    658 Ca    c    0.332655    0.078442    0.706458     0.00000    1.000000    
    659 Ca    c    0.332655    0.203442    0.206458     0.00000    1.000000    
    660 Ca    c    0.332655    0.203442    0.706458     0.00000    1.000000    
    661 Ca    c    0.332655    0.328442    0.206458     0.00000    1.000000    
    662 Ca    c    0.332655    0.328442    0.706458     0.00000    1.000000    
    663 Ca    c    0.332655    0.453442    0.206458     0.00000    1.000000    
    664 Ca    c    0.332655    0.453442    0.706458     0.00000    1.000000    
    665 Ca    c    0.332655    0.578442    0.206458     0.00000    1.000000    
    666 Ca    c    0.332655    0.578442    0.706458     0.00000    1.000000    
    667 Ca    c    0.332655    0.703442    0.206458     0.00000    1.000000    
    668 Ca    c    0.332655    0.703442    0.706458     0.00000    1.000000    
    669 Ca    c    0.332655    0.828442    0.206458     0.00000    1.000000    
    670 Ca    c    0.332655    0.828442    0.706458     0.00000    1.000000    
    671 Ca    c    0.332655    0.953442    0.206458     0.00000    1.000000    
    672 Ca    c    0.332655    0.953442    0.706458     0.00000    1.000000    
    673 Ca    c    0.582655    0.078442    0.206458     0.00000    1.000000    
    674 Ca    c    0.582655    0.078442    0.706458     0.00000    1.000000    
    675 Ca    c    0.582655    0.203442    0.206458     0.00000    1.000000    
    676 Ca    c    0.582655    0.203442    0.706458     0.00000    1.000000    
    677 Ca    c    0.582655    0.328442    0.206458     0.00000    1.000000    
    678 Ca    c    0.582655    0.328442    0.706458     0.00000    1.000000    
    679 Ca    c    0.582655    0.453442    0.206458     0.00000    1.000000    
    680 Ca    c    0.582655    0.453442    0.706458     0.00000    1.000000    
    681 Ca    c    0.582655    0.578442    0.206458     0.00000    1.000000    
    682 Ca    c    0.582655    0.578442    0.706458     0.00000    1.000000    
    683 Ca    c    0.582655    0.703442    0.206458     0.00000    1.000000    
    684 Ca    c    0.582655    0.703442    0.706458     0.00000    1.000000    
    685 Ca    c    0.582655    0.828442    0.206458     0.00000    1.000000    
    686 Ca    c    0.582655    0.828442    0.706458     0.00000    1.000000    
    687 Ca    c    0.582655    0.953442    0.206458     0.00000    1.000000    
    688 Ca    c    0.582655    0.953442    0.706458     0.00000    1.000000    
    689 Ca    c    0.832655    0.078442    0.206458     0.00000    1.000000    
    690 Ca    c    0.832655    0.078442    0.706458     0.00000    1.000000    
    691 Ca    c    0.832655    0.203442    0.206458     0.00000    1.000000    
    692 Ca    c    0.832655    0.203442    0.706458     0.00000    1.000000    
    693 Ca    c    0.832655    0.328442    0.206458     0.00000    1.000000    
    694 Ca    c    0.832655    0.328442    0.706458     0.00000    1.000000    
    695 Ca    c    0.832655    0.453442    0.206458     0.00000    1.000000    
    696 Ca    c    0.832655    0.453442    0.706458     0.00000    1.000000    
    697 Ca    c    0.832655    0.578442    0.206458     0.00000    1.000000    
    698 Ca    c    0.832655    0.578442    0.706458     0.00000    1.000000    
    699 Ca    c    0.832655    0.703442    0.206458     0.00000    1.000000    
    700 Ca    c    0.832655    0.703442    0.706458     0.00000    1.000000    
    701 Ca    c    0.832655    0.828442    0.206458     0.00000    1.000000    
    702 Ca    c    0.832655    0.828442    0.706458     0.00000    1.000000    
    703 Ca    c    0.832655    0.953442    0.206458     0.00000    1.000000    
    704 Ca    c    0.832655    0.953442    0.706458     0.00000    1.000000    
    705 Ca    c    0.074230    0.083673    0.373125     0.00000    1.000000    
    706 Ca    c    0.074230    0.083673    0.873125     0.00000    1.000000    
    707 Ca    c    0.074230    0.208673    0.373125     0.00000    1.000000    
    708 Ca    c    0.074230    0.208673    0.873125     0.00000    1.000000    
    709 Ca    c    0.074230    0.333673    0.373125     0.00000    1.000000    
    710 Ca    c    0.074230    0.333673    0.873125     0.00000    1.000000    
    711 Ca    c    0.074230    0.458673    0.373125     0.00000    1.000000    
    712 Ca    c    0.074230    0.458673    0.873125     0.00000    1.000000    
    713 Ca    c    0.074230    0.583673    0.373125     0.00000    1.000000    
    714 Ca    c    0.074230    0.583673    0.873125     0.00000    1.000000    
    715 Ca    c    0.074230    0.708673    0.373125     0.00000    1.000000    
    716 Ca    c    0.074230    0.708673    0.873125     0.00000    1.000000    
    717 Ca    c    0.074230    0.833673    0.373125     0.00000    1.000000    
    718 Ca    c    0.074230    0.833673    0.873125     0.00000    1.000000    
    719 Ca    c    0.074230    0.958673    0.373125     0.00000    1.000000    
    720 Ca    c    0.074230    0.958673    0.873125     0.00000    1.000000    
    721 Ca    c    0.324230    0.083673    0.373125     0.00000    1.000000    
    722 Ca    c    0.324230    0.083673    0.873125     0.00000    1.000000    
    723 Ca    c    0.324230    0.208673    0.373125     0.00000    1.000000    
    724 Ca    c    0.324230    0.208673    0.873125     0.00000    1.000000    
    725 Ca    c    0.324230    0.333673    0.373125     0.00000    1.000000    
    726 Ca    c    0.324230    0.333673    0.873125     0.00000    1.000000    
    727 Ca    c    0.324230    0.458673    0.373125     0.00000    1.000000    
    728 Ca    c    0.324230    0.458673    0.873125     0.00000    1.000000    
    729 Ca    c    0.324230    0.583673    0.373125     0.00000    1.000000    
    730 Ca    c    0.324230    0.583673    0.873125     0.00000    1.000000    
    731 Ca    c    0.324230    0.708673    0.373125     0.00000    1.000000    
    732 Ca    c    0.324230    0.708673    0.873125     0.00000    1.000000    
    733 Ca    c    0.324230    0.833673    0.373125     0.00000    1.000000    
    734 Ca    c    0.324230    0.833673    0.873125     0.00000    1.000000    
    735 Ca    c    0.324230    0.958673    0.373125     0.00000    1.000000    
    736 Ca    c    0.324230    0.958673    0.873125     0.00000    1.000000    
    737 Ca    c    0.574230    0.083673    0.373125     0.00000    1.000000    
    738 Ca    c    0.574230    0.083673    0.873125     0.00000    1.000000    
    739 Ca    c    0.574230    0.208673    0.373125     0.00000    1.000000    
    740 Ca    c    0.574230    0.208673    0.873125     0.00000    1.000000    
    741 Ca    c    0.574230    0.333673    0.373125     0.00000    1.000000    
    742 Ca    c    0.574230    0.333673    0.873125     0.00000    1.000000    
    743 Ca    c    0.574230    0.458673    0.373125     0.00000    1.000000    
    744 Ca    c    0.574230    0.458673    0.873125     0.00000    1.000000    
    745 Ca    c    0.574230    0.583673    0.373125     0.00000    1.000000    
    746 Ca    c    0.574230    0.583673    0.873125     0.00000    1.000000    
    747 Ca    c    0.574230    0.708673    0.373125     0.00000    1.000000    
    748 Ca    c    0.574230    0.708673    0.873125     0.00000    1.000000    
    749 Ca    c    0.574230    0.833673    0.373125     0.00000    1.000000    
    750 Ca    c    0.574230    0.833673    0.873125     0.00000    1.000000    
    751 Ca    c    0.574230    0.958673    0.373125     0.00000    1.000000    
    752 Ca    c    0.574230    0.958673    0.873125     0.00000    1.000000    
    753 Ca    c    0.824230    0.083673    0.373125     0.00000    1.000000    
    754 Ca    c    0.824230    0.083673    0.873125     0.00000    1.000000    
    755 Ca    c    0.824230    0.208673    0.373125     0.00000    1.000000    
    756 Ca    c    0.824230    0.208673    0.873125     0.00000    1.000000    
    757 Ca    c    0.824230    0.333673    0.373125     0.00000    1.000000    
    758 Ca    c    0.824230    0.333673    0.873125     0.00000    1.000000    
    759 Ca    c    0.824230    0.458673    0.373125     0.00000    1.000000    
    760 Ca    c    0.824230    0.458673    0.873125     0.00000    1.000000    
    761 Ca    c    0.824230    0.583673    0.373125     0.00000    1.000000    
    762 Ca    c    0.824230    0.583673    0.873125     0.00000    1.000000    
    763 Ca    c    0.824230    0.708673    0.373125     0.00000    1.000000    
    764 Ca    c    0.824230    0.708673    0.873125     0.00000    1.000000    
    765 Ca    c    0.824230    0.833673    0.373125     0.00000    1.000000    
    766 Ca    c    0.824230    0.833673    0.873125     0.00000    1.000000    
    767 Ca    c    0.824230    0.958673    0.373125     0.00000    1.000000    
    768 Ca    c    0.824230    0.958673    0.873125     0.00000    1.000000    
    769 Ca    c    0.075893    0.079101    0.123240     0.00000    1.000000    
    770 Ca    c    0.075893    0.079101    0.623240     0.00000    1.000000    
    771 Ca    c    0.075893    0.204101    0.123240     0.00000    1.000000    
    772 Ca    c    0.075893    0.204101    0.623240     0.00000    1.000000    
    773 Ca    c    0.075893    0.329101    0.123240     0.00000    1.000000    
    774 Ca    c    0.075893    0.329101    0.623240     0.00000    1.000000    
    775 Ca    c    0.075893    0.454101    0.123240     0.00000    1.000000    
    776 Ca    c    0.075893    0.454101    0.623240     0.00000    1.000000    
    777 Ca    c    0.075893    0.579101    0.123240     0.00000    1.000000    
    778 Ca    c    0.075893    0.579101    0.623240     0.00000    1.000000    
    779 Ca    c    0.075893    0.704101    0.123240     0.00000    1.000000    
    780 Ca    c    0.075893    0.704101    0.623240     0.00000    1.000000    
    781 Ca    c    0.075893    0.829101    0.123240     0.00000    1.000000    
    782 Ca    c    0.075893    0.829101    0.623240     0.00000    1.000000    
    783 Ca    c    0.075893    0.954101    0.123240     0.00000    1.000000    
    784 Ca    c    0.075893    0.954101    0.623240     0.00000    1.000000    
    785 Ca    c    0.325893    0.079101    0.123240     0.00000    1.000000    
    786 Ca    c    0.325893    0.079101    0.623240     0.00000    1.000000    
    787 Ca    c    0.325893    0.204101    0.123240     0.00000    1.000000    
    788 Ca    c    0.325893    0.204101    0.623240     0.00000    1.000000    
    789 Ca    c    0.325893    0.329101    0.123240     0.00000    1.000000    
    790 Ca    c    0.325893    0.329101    0.623240     0.00000    1.000000    
    791 Ca    c    0.325893    0.454101    0.123240     0.00000    1.000000    
    792 Ca    c    0.325893    0.454101    0.623240     0.00000    1.000000    
    793 Ca    c    0.325893    0.579101    0.123240     0.00000    1.000000    
    794 Ca    c    0.325893    0.579101    0.623240     0.00000    1.000000    
    795 Ca    c    0.325893    0.704101    0.123240     0.00000    1.000000    
    796 Ca    c    0.325893    0.704101    0.623240     0.00000    1.000000    
    797 Ca    c    0.325893    0.829101    0.123240     0.00000    1.000000    
    798 Ca    c    0.325893    0.829101    0.623240     0.00000    1.000000    
    799 Ca    c    0.325893    0.954101    0.123240     0.00000    1.000000    
    800 Ca    c    0.325893    0.954101    0.623240     0.00000    1.000000    
    801 Ca    c    0.575893    0.079101    0.123240     0.00000    1.000000    
    802 Ca    c    0.575893    0.079101    0.623240     0.00000    1.000000    
    803 Ca    c    0.575893    0.204101    0.123240     0.00000    1.000000    
    804 Ca    c    0.575893    0.204101    0.623240     0.00000    1.000000    
    805 Ca    c    0.575893    0.329101    0.123240     0.00000    1.000000    
    806 Ca    c    0.575893    0.329101    0.623240     0.00000    1.000000    
    807 Ca    c    0.575893    0.454101    0.123240     0.00000    1.000000    
    808 Ca    c    0.575893    0.454101    0.623240     0.00000    1.000000    
    809 Ca    c    0.575893    0.579101    0.123240     0.00000    1.000000    
    810 Ca    c    0.575893    0.579101    0.623240     0.00000    1.000000    
    811 Ca    c    0.575893    0.704101    0.123240     0.00000    1.000000    
    812 Ca    c    0.575893    0.704101    0.623240     0.00000    1.000000    
    813 Ca    c    0.575893    0.829101    0.123240     0.00000    1.000000    
    814 Ca    c    0.575893    0.829101    0.623240     0.00000    1.000000    
    815 Ca    c    0.575893    0.954101    0.123240     0.00000    1.000000    
    816 Ca    c    0.575893    0.954101    0.623240     0.00000    1.000000    
    817 Ca    c    0.825893    0.079101    0.123240     0.00000    1.000000    
    818 Ca    c    0.825893    0.079101    0.623240     0.00000    1.000000    
    819 Ca    c    0.825893    0.204101    0.123240     0.00000    1.000000    
    820 Ca    c    0.825893    0.204101    0.623240     0.00000    1.000000    
    821 Ca    c    0.825893    0.329101    0.123240     0.00000    1.000000    
    822 Ca    c    0.825893    0.329101    0.623240     0.00000    1.000000    
    823 Ca    c    0.825893    0.454101    0.123240     0.00000    1.000000    
    824 Ca    c    0.825893    0.454101    0.623240     0.00000    1.000000    
    825 Ca    c    0.825893    0.579101    0.123240     0.00000    1.000000    
    826 Ca    c    0.825893    0.579101    0.623240     0.00000    1.000000    
    827 Ca    c    0.825893    0.704101    0.123240     0.00000    1.000000    
    828 Ca    c    0.825893    0.704101    0.623240     0.00000    1.000000    
    829 Ca    c    0.825893    0.829101    0.123240     0.00000    1.000000    
    830 Ca    c    0.825893    0.829101    0.623240     0.00000    1.000000    
    831 Ca    c    0.825893    0.954101    0.123240     0.00000    1.000000    
    832 Ca    c    0.825893    0.954101    0.623240     0.00000    1.000000    
    833 Ca    c    0.091798    0.083845    0.456573     0.00000    1.000000    
    834 Ca    c    0.091798    0.083845    0.956573     0.00000    1.000000    
    835 Ca    c    0.091798    0.208845    0.456573     0.00000    1.000000    
    836 Ca    c    0.091798    0.208845    0.956573     0.00000    1.000000    
    837 Ca    c    0.091798    0.333845    0.456573     0.00000    1.000000    
    838 Ca    c    0.091798    0.333845    0.956573     0.00000    1.000000    
    839 Ca    c    0.091798    0.458845    0.456573     0.00000    1.000000    
    840 Ca    c    0.091798    0.458845    0.956573     0.00000    1.000000    
    841 Ca    c    0.091798    0.583845    0.456573     0.00000    1.000000    
    842 Ca    c    0.091798    0.583845    0.956573     0.00000    1.000000    
    843 Ca    c    0.091798    0.708845    0.456573     0.00000    1.000000    
    844 Ca    c    0.091798    0.708845    0.956573     0.00000    1.000000    
    845 Ca    c    0.091798    0.833845    0.456573     0.00000    1.000000    
    846 Ca    c    0.091798    0.833845    0.956573     0.00000    1.000000    
    847 Ca    c    0.091798    0.958845    0.456573     0.00000    1.000000    
    848 Ca    c    0.091798    0.958845    0.956573     0.00000    1.000000    
    849 Ca    c    0.341798    0.083845    0.456573     0.00000    1.000000    
    850 Ca    c    0.341798    0.083845    0.956573     0.00000    1.000000    
    851 Ca    c    0.341798    0.208845    0.456573     0.00000    1.000000    
    852 Ca    c    0.341798    0.208845    0.956573     0.00000    1.000000    
    853 Ca    c    0.341798    0.333845    0.456573     0.00000    1.000000    
    854 Ca    c    0.341798    0.333845    0.956573     0.00000    1.000000    
    855 Ca    c    0.341798    0.458845    0.456573     0.00000    1.000000    
    856 Ca    c    0.341798    0.458845    0.956573     0.00000    1.000000    
    857 Ca    c    0.341798    0.583845    0.456573     0.00000    1.000000    
    858 Ca    c    0.341798    0.583845    0.956573     0.00000    1.000000    
    859 Ca    c    0.341798    0.708845    0.456573     0.00000    1.000000    
    860 Ca    c    0.341798    0.708845    0.956573     0.00000    1.000000    
    861 Ca    c    0.341798    0.833845    0.456573     0.00000    1.000000    
    862 Ca    c    0.341798    0.833845    0.956573     0.00000    1.000000    
    863 Ca    c    0.341798    0.958845    0.456573     0.00000    1.000000    
    864 Ca    c    0.341798    0.958845    0.956573     0.00000    1.000000    
    865 Ca    c    0.591798    0.083845    0.456573     0.00000    1.000000    
    866 Ca    c    0.591798    0.083845    0.956573     0.00000    1.000000    
    867 Ca    c    0.591798    0.208845    0.456573     0.00000    1.000000    
    868 Ca    c    0.591798    0.208845    0.956573     0.00000    1.000000    
    869 Ca    c    0.591798    0.333845    0.456573     0.00000    1.000000    
    870 Ca    c    0.591798    0.333845    0.956573     0.00000    1.000000    
    871 Ca    c    0.591798    0.458845    0.456573     0.00000    1.000000    
    872 Ca    c    0.591798    0.458845    0.956573     0.00000    1.000000    
    873 Ca    c    0.591798    0.583845    0.456573     0.00000    1.000000    
    874 Ca    c    0.591798    0.583845    0.956573     0.00000    1.000000    
    875 Ca    c    0.591798    0.708845    0.456573     0.00000    1.000000    
    876 Ca    c    0.591798    0.708845    0.956573     0.00000    1.000000    
    877 Ca    c    0.591798    0.833845    0.456573     0.00000    1.000000    
    878 Ca    c    0.591798    0.833845    0.956573     0.00000    1.000000    
    879 Ca    c    0.591798    0.958845    0.456573     0.00000    1.000000    
    880 Ca    c    0.591798    0.958845    0.956573     0.00000    1.000000    
    881 Ca    c    0.841798    0.083845    0.456573     0.00000    1.000000    
    882 Ca    c    0.841798    0.083845    0.956573     0.00000    1.000000    
    883 Ca    c    0.841798    0.208845    0.456573     0.00000    1.000000    
    884 Ca    c    0.841798    0.208845    0.956573     0.00000    1.000000    
    885 Ca    c    0.841798    0.333845    0.456573     0.00000    1.000000    
    886 Ca    c    0.841798    0.333845    0.956573     0.00000    1.000000    
    887 Ca    c    0.841798    0.458845    0.456573     0.00000    1.000000    
    888 Ca    c    0.841798    0.458845    0.956573     0.00000    1.000000    
    889 Ca    c    0.841798    0.583845    0.456573     0.00000    1.000000    
    890 Ca    c    0.841798    0.583845    0.956573     0.00000    1.000000    
    891 Ca    c    0.841798    0.708845    0.456573     0.00000    1.000000    
    892 Ca    c    0.841798    0.708845    0.956573     0.00000    1.000000    
    893 Ca    c    0.841798    0.833845    0.456573     0.00000    1.000000    
    894 Ca    c    0.841798    0.833845    0.956573     0.00000    1.000000    
    895 Ca    c    0.841798    0.958845    0.456573     0.00000    1.000000    
    896 Ca    c    0.841798    0.958845    0.956573     0.00000    1.000000    
    897 Ca    c    0.082310    0.087054    0.289907     0.00000    1.000000    
    898 Ca    c    0.082310    0.087054    0.789907     0.00000    1.000000    
    899 Ca    c    0.082310    0.212054    0.289907     0.00000    1.000000    
    900 Ca    c    0.082310    0.212054    0.789907     0.00000    1.000000    
    901 Ca    c    0.082310    0.337054    0.289907     0.00000    1.000000    
    902 Ca    c    0.082310    0.337054    0.789907     0.00000    1.000000    
    903 Ca    c    0.082310    0.462054    0.289907     0.00000    1.000000    
    904 Ca    c    0.082310    0.462054    0.789907     0.00000    1.000000    
    905 Ca    c    0.082310    0.587054    0.289907     0.00000    1.000000    
    906 Ca    c    0.082310    0.587054    0.789907     0.00000    1.000000    
    907 Ca    c    0.082310    0.712054    0.289907     0.00000    1.000000    
    908 Ca    c    0.082310    0.712054    0.789907     0.00000    1.000000    
    909 Ca    c    0.082310    0.837054    0.289907     0.00000    1.000000    
    910 Ca    c    0.082310    0.837054    0.789907     0.00000    1.000000    
    911 Ca    c    0.082310    0.962054    0.289907     0.00000    1.000000    
    912 Ca    c    0.082310    0.962054    0.789907     0.00000    1.000000    
    913 Ca    c    0.332310    0.087054    0.289907     0.00000    1.000000    
    914 Ca    c    0.332310    0.087054    0.789907     0.00000    1.000000    
    915 Ca    c    0.332310    0.212054    0.289907     0.00000    1.000000    
    916 Ca    c    0.332310    0.212054    0.789907     0.00000    1.000000    
    917 Ca    c    0.332310    0.337054    0.289907     0.00000    1.000000    
    918 Ca    c    0.332310    0.337054    0.789907     0.00000    1.000000    
    919 Ca    c    0.332310    0.462054    0.289907     0.00000    1.000000    
    920 Ca    c    0.332310    0.462054    0.789907     0.00000    1.000000    
    921 Ca    c    0.332310    0.587054    0.289907     0.00000    1.000000    
    922 Ca    c    0.332310    0.587054    0.789907     0.00000    1.000000    
    923 Ca    c    0.332310    0.712054    0.289907     0.00000    1.000000    
    924 Ca    c    0.332310    0.712054    0.789907     0.00000    1.000000    
    925 Ca    c    0.332310    0.837054    0.289907     0.00000    1.000000    
    926 Ca    c    0.332310    0.837054    0.789907     0.00000    1.000000    
    927 Ca    c    0.332310    0.962054    0.289907     0.00000    1.000000    
    928 Ca    c    0.332310    0.962054    0.789907     0.00000    1.000000    
    929 Ca    c    0.582310    0.087054    0.289907     0.00000    1.000000    
    930 Ca    c    0.582310    0.087054    0.789907     0.00000    1.000000    
    931 Ca    c    0.582310    0.212054    0.289907     0.00000    1.000000    
    932 Ca    c    0.582310    0.212054    0.789907     0.00000    1.000000    
    933 Ca    c    0.582310    0.337054    0.289907     0.00000    1.000000    
    934 Ca    c    0.582310    0.337054    0.789907     0.00000    1.000000    
    935 Ca    c    0.582310    0.462054    0.289907     0.00000    1.000000    
    936 Ca    c    0.582310    0.462054    0.789907     0.00000    1.000000    
    937 Ca    c    0.582310    0.587054    0.289907     0.00000    1.000000    
    938 Ca    c    0.582310    0.587054    0.789907     0.00000    1.000000    
    939 Ca    c    0.582310    0.712054    0.289907     0.00000    1.000000    
    940 Ca    c    0.582310    0.712054    0.789907     0.00000    1.000000    
    941 Ca    c    0.582310    0.837054    0.289907     0.00000    1.000000    
    942 Ca    c    0.582310    0.837054    0.789907     0.00000    1.000000    
    943 Ca    c    0.582310    0.962054    0.289907     0.00000    1.000000    
    944 Ca    c    0.582310    0.962054    0.789907     0.00000    1.000000    
    945 Ca    c    0.832310    0.087054    0.289907     0.00000    1.000000    
    946 Ca    c    0.832310    0.087054    0.789907     0.00000    1.000000    
    947 Ca    c    0.832310    0.212054    0.289907     0.00000    1.000000    
    948 Ca    c    0.832310    0.212054    0.789907     0.00000    1.000000    
    949 Ca    c    0.832310    0.337054    0.289907     0.00000    1.000000    
    950 Ca    c    0.832310    0.337054    0.789907     0.00000    1.000000    
    951 Ca    c    0.832310    0.462054    0.289907     0.00000    1.000000    
    952 Ca    c    0.832310    0.462054    0.789907     0.00000    1.000000    
    953 Ca    c    0.832310    0.587054    0.289907     0.00000    1.000000    
    954 Ca    c    0.832310    0.587054    0.789907     0.00000    1.000000    
    955 Ca    c    0.832310    0.712054    0.289907     0.00000    1.000000    
    956 Ca    c    0.832310    0.712054    0.789907     0.00000    1.000000    
    957 Ca    c    0.832310    0.837054    0.289907     0.00000    1.000000    
    958 Ca    c    0.832310    0.837054    0.789907     0.00000    1.000000    
    959 Ca    c    0.832310    0.962054    0.289907     0.00000    1.000000    
    960 Ca    c    0.832310    0.962054    0.789907     0.00000    1.000000    
[...]
      5429                   8                -0.9168044
      5430                   8                -0.9168044
      5431                   8                -0.9168044
      5432                   8                -0.9168044
      5433                   8                -0.9168044
      5434                   8                -0.9168044
      5435                   8                -0.9168044
      5436                   8                -0.9168044
      5437                   8                -0.9168044
      5438                   8                -0.9168044
      5439                   8                -0.9168044
      5440                   8                -0.9168044
      5441                   8                -0.9168044
      5442                   8                -0.9168044
      5443                   8                -0.9168044
      5444                   8                -0.9168044
      5445                   8                -0.9168044
      5446                   8                -0.9168044
      5447                   8                -0.9168044
      5448                   8                -0.9168044
      5449                   8                -0.9168044
      5450                   8                -0.9168044
      5451                   8                -0.9168044
      5452                   8                -0.9168044
      5453                   8                -0.9168044
      5454                   8                -0.9168044
      5455                   8                -0.9168044
      5456                   8                -0.9168044
      5457                   8                -0.9168044
      5458                   8                -0.9168044
      5459                   8                -0.9168044
      5460                   8                -0.9168044
      5461                   8                -0.9168044
      5462                   8                -0.9168044
      5463                   8                -0.9168044
      5464                   8                -0.9168044
      5465                   8                -0.9168044
      5466                   8                -0.9168044
      5467                   8                -0.9168044
      5468                   8                -0.9168044
      5469                   8                -0.9168044
      5470                   8                -0.9168044
      5471                   8                -0.9168044
      5472                   8                -0.9168044
      5473                   8                -0.9168044
      5474                   8                -0.9168044
      5475                   8                -0.9168044
      5476                   8                -0.9168044
      5477                   8                -0.9168044
      5478                   8                -0.9168044
      5479                   8                -0.9168044
      5480                   8                -0.9168044
      5481                   8                -0.9168044
      5482                   8                -0.9168044
      5483                   8                -0.9168044
      5484                   8                -0.9168044
      5485                   8                -0.9168044
      5486                   8                -0.9168044
      5487                   8                -0.9168044
      5488                   8                -0.9168044
      5489                   8                -0.9168044
      5490                   8                -0.9168044
      5491                   8                -0.9168044
      5492                   8                -0.9168044
      5493                   8                -0.9168044
      5494                   8                -0.9168044
      5495                   8                -0.9168044
      5496                   8                -0.9168044
      5497                   8                -0.9168044
      5498                   8                -0.9168044
      5499                   8                -0.9168044
      5500                   8                -0.9168044
      5501                   8                -0.9168044
      5502                   8                -0.9168044
      5503                   8                -0.9168044
      5504                   8                -0.9168044
      5505                   8                -0.9168044
      5506                   8                -0.9168044
      5507                   8                -0.9168044
      5508                   8                -0.9168044
      5509                   8                -0.9168044
      5510                   8                -0.9168044
      5511                   8                -0.9168044
      5512                   8                -0.9168044
      5513                   8                -0.9168044
      5514                   8                -0.9168044
      5515                   8                -0.9168044
      5516                   8                -0.9168044
      5517                   8                -0.9168044
      5518                   8                -0.9168044
      5519                   8                -0.9168044
      5520                   8                -0.9168044
      5521                   8                -0.9168044
      5522                   8                -0.9168044
      5523                   8                -0.9168044
      5524                   8                -0.9168044
      5525                   8                -0.9168044
      5526                   8                -0.9168044
      5527                   8                -0.9168044
      5528                   8                -0.9168044
      5529                   8                -0.9168044
      5530                   8                -0.9168044
      5531                   8                -0.9168044
      5532                   8                -0.9168044
      5533                   8                -0.9168044
      5534                   8                -0.9168044
      5535                   8                -0.9168044
      5536                   8                -0.9168044
      5537                   8                -0.9168044
      5538                   8                -0.9168044
      5539                   8                -0.9168044
      5540                   8                -0.9168044
      5541                   8                -0.9168044
      5542                   8                -0.9168044
      5543                   8                -0.9168044
      5544                   8                -0.9168044
      5545                   8                -0.9168044
      5546                   8                -0.9168044
      5547                   8                -0.9168044
      5548                   8                -0.9168044
      5549                   8                -0.9168044
      5550                   8                -0.9168044
      5551                   8                -0.9168044
      5552                   8                -0.9168044
      5553                   8                -0.9168044
      5554                   8                -0.9168044
      5555                   8                -0.9168044
      5556                   8                -0.9168044
      5557                   8                -0.9168044
      5558                   8                -0.9168044
      5559                   8                -0.9168044
      5560                   8                -0.9168044
      5561                   8                -0.9168044
      5562                   8                -0.9168044
      5563                   8                -0.9168044
      5564                   8                -0.9168044
      5565                   8                -0.9168044
      5566                   8                -0.9168044
      5567                   8                -0.9168044
      5568                   8                -0.9168044
      5569                   8                -0.9168010
      5570                   8                -0.9168010
      5571                   8                -0.9168010
      5572                   8                -0.9168010
      5573                   8                -0.9168010
      5574                   8                -0.9168010
      5575                   8                -0.9168010
      5576                   8                -0.9168010
      5577                   8                -0.9168010
      5578                   8                -0.9168010
      5579                   8                -0.9168010
      5580                   8                -0.9168010
      5581                   8                -0.9168010
      5582                   8                -0.9168010
      5583                   8                -0.9168010
      5584                   8                -0.9168010
      5585                   8                -0.9168010
      5586                   8                -0.9168010
      5587                   8                -0.9168010
      5588                   8                -0.9168010
      5589                   8                -0.9168010
      5590                   8                -0.9168010
      5591                   8                -0.9168010
      5592                   8                -0.9168010
      5593                   8                -0.9168010
      5594                   8                -0.9168010
      5595                   8                -0.9168010
      5596                   8                -0.9168010
      5597                   8                -0.9168010
      5598                   8                -0.9168010
      5599                   8                -0.9168010
      5600                   8                -0.9168010
      5601                   8                -0.9168010
      5602                   8                -0.9168010
      5603                   8                -0.9168010
      5604                   8                -0.9168010
      5605                   8                -0.9168010
      5606                   8                -0.9168010
      5607                   8                -0.9168010
      5608                   8                -0.9168010
      5609                   8                -0.9168010
      5610                   8                -0.9168010
      5611                   8                -0.9168010
      5612                   8                -0.9168010
      5613                   8                -0.9168010
      5614                   8                -0.9168010
      5615                   8                -0.9168010
      5616                   8                -0.9168010
      5617                   8                -0.9168010
      5618                   8                -0.9168010
      5619                   8                -0.9168010
      5620                   8                -0.9168010
      5621                   8                -0.9168010
      5622                   8                -0.9168010
      5623                   8                -0.9168010
      5624                   8                -0.9168010
      5625                   8                -0.9168010
      5626                   8                -0.9168010
      5627                   8                -0.9168010
      5628                   8                -0.9168010
      5629                   8                -0.9168010
      5630                   8                -0.9168010
      5631                   8                -0.9168010
      5632                   8                -0.9168010
      5633                   8                -0.9168010
      5634                   8                -0.9168010
      5635                   8                -0.9168010
      5636                   8                -0.9168010
      5637                   8                -0.9168010
      5638                   8                -0.9168010
      5639                   8                -0.9168010
      5640                   8                -0.9168010
      5641                   8                -0.9168010
      5642                   8                -0.9168010
      5643                   8                -0.9168010
      5644                   8                -0.9168010
      5645                   8                -0.9168010
      5646                   8                -0.9168010
      5647                   8                -0.9168010
      5648                   8                -0.9168010
      5649                   8                -0.9168010
      5650                   8                -0.9168010
      5651                   8                -0.9168010
      5652                   8                -0.9168010
      5653                   8                -0.9168010
      5654                   8                -0.9168010
      5655                   8                -0.9168010
      5656                   8                -0.9168010
      5657                   8                -0.9168010
      5658                   8                -0.9168010
      5659                   8                -0.9168010
      5660                   8                -0.9168010
      5661                   8                -0.9168010
      5662                   8                -0.9168010
      5663                   8                -0.9168010
      5664                   8                -0.9168010
      5665                   8                -0.9168010
      5666                   8                -0.9168010
      5667                   8                -0.9168010
      5668                   8                -0.9168010
      5669                   8                -0.9168010
      5670                   8                -0.9168010
      5671                   8                -0.9168010
      5672                   8                -0.9168010
      5673                   8                -0.9168010
      5674                   8                -0.9168010
      5675                   8                -0.9168010
      5676                   8                -0.9168010
      5677                   8                -0.9168010
      5678                   8                -0.9168010
      5679                   8                -0.9168010
      5680                   8                -0.9168010
      5681                   8                -0.9168010
      5682                   8                -0.9168010
      5683                   8                -0.9168010
      5684                   8                -0.9168010
      5685                   8                -0.9168010
      5686                   8                -0.9168010
      5687                   8                -0.9168010
      5688                   8                -0.9168010
      5689                   8                -0.9168010
      5690                   8                -0.9168010
      5691                   8                -0.9168010
      5692                   8                -0.9168010
      5693                   8                -0.9168010
      5694                   8                -0.9168010
      5695                   8                -0.9168010
      5696                   8                -0.9168010
      5697                   8                -0.9168010
      5698                   8                -0.9168010
      5699                   8                -0.9168010
      5700                   8                -0.9168010
      5701                   8                -0.9168010
      5702                   8                -0.9168010
      5703                   8                -0.9168010
      5704                   8                -0.9168010
      5705                   8                -0.9168010
      5706                   8                -0.9168010
      5707                   8                -0.9168010
      5708                   8                -0.9168010
      5709                   8                -0.9168010
      5710                   8                -0.9168010
      5711                   8                -0.9168010
      5712                   8                -0.9168010
      5713                   8                -0.9168010
      5714                   8                -0.9168010
      5715                   8                -0.9168010
      5716                   8                -0.9168010
      5717                   8                -0.9168010
      5718                   8                -0.9168010
      5719                   8                -0.9168010
      5720                   8                -0.9168010
      5721                   8                -0.9168010
      5722                   8                -0.9168010
      5723                   8                -0.9168010
      5724                   8                -0.9168010
      5725                   8                -0.9168010
      5726                   8                -0.9168010
      5727                   8                -0.9168010
      5728                   8                -0.9168010
      5729                   8                -0.9168010
      5730                   8                -0.9168010
      5731                   8                -0.9168010
      5732                   8                -0.9168010
      5733                   8                -0.9168010
      5734                   8                -0.9168010
      5735                   8                -0.9168010
      5736                   8                -0.9168010
      5737                   8                -0.9168010
      5738                   8                -0.9168010
      5739                   8                -0.9168010
      5740                   8                -0.9168010
      5741                   8                -0.9168010
      5742                   8                -0.9168010
      5743                   8                -0.9168010
      5744                   8                -0.9168010
      5745                   8                -0.9168010
      5746                   8                -0.9168010
      5747                   8                -0.9168010
      5748                   8                -0.9168010
      5749                   8                -0.9168010
      5750                   8                -0.9168010
      5751                   8                -0.9168010
      5752                   8                -0.9168010
      5753                   8                -0.9168010
      5754                   8                -0.9168010
      5755                   8                -0.9168010
      5756                   8                -0.9168010
      5757                   8                -0.9168010
      5758                   8                -0.9168010
      5759                   8                -0.9168010
      5760                   8                -0.9168010
--------------------------------------------------------------------------------


  Peak dynamic memory used =      38.93 MB 


  Timing analysis for GULP :

--------------------------------------------------------------------------------
  Task / Subroutine                                          Time (Seconds)
--------------------------------------------------------------------------------
  Calculation of real space energy and derivatives                0.6666
  Calculation of reaxFF energy and derivatives                    0.6825
  Electronegativity equalisation                                  1.1990
  Symmetry generation of equivalent positions                     0.0015
--------------------------------------------------------------------------------
  Total CPU time                                                  2.6586
--------------------------------------------------------------------------------


  Dump file written as Vaterite_bulk.grs


  Job Finished at 20:41.19 31st October    2023                               

