4096
 Atoms. Timestep: 0
2 36.792 61.0706 78.666
2 36.792 61.0706 86.19
2 36.792 61.0706 93.714
2 36.792 61.0706 101.238
2 2.2995 57.0878 78.666
2 2.2995 57.0878 86.19
2 2.2995 57.0878 93.714
2 2.2995 57.0878 101.238
2 4.599 53.1049 78.666
2 4.599 53.1049 86.19
2 4.599 53.1049 93.714
2 4.599 53.1049 101.238
2 6.8985 49.1221 78.666
2 6.8985 49.1221 86.19
2 6.8985 49.1221 93.714
2 6.8985 49.1221 101.238
2 9.198 45.1392 78.666
2 9.198 45.1392 86.19
2 9.198 45.1392 93.714
2 9.198 45.1392 101.238
2 11.4975 41.1564 78.666
2 11.4975 41.1564 86.19
2 11.4975 41.1564 93.714
2 11.4975 41.1564 101.238
2 13.797 37.1735 78.666
2 13.797 37.1735 86.19
2 13.797 37.1735 93.714
2 13.797 37.1735 101.238
2 16.0965 33.1907 78.666
2 16.0965 33.1907 86.19
2 16.0965 33.1907 93.714
2 16.0965 33.1907 101.238
2 18.396 29.2078 78.666
2 18.396 29.2078 86.19
2 18.396 29.2078 93.714
2 18.396 29.2078 101.238
2 20.6955 25.225 78.666
2 20.6955 25.225 86.19
2 20.6955 25.225 93.714
2 20.6955 25.225 101.238
2 22.995 21.2421 78.666
2 22.995 21.2421 86.19
2 22.995 21.2421 93.714
2 22.995 21.2421 101.238
2 25.2945 17.2593 78.666
2 25.2945 17.2593 86.19
2 25.2945 17.2593 93.714
2 25.2945 17.2593 101.238
2 27.594 13.2764 78.666
2 27.594 13.2764 86.19
2 27.594 13.2764 93.714
2 27.594 13.2764 101.238
2 29.8935 9.29358 78.666
2 29.8935 9.29358 86.19
2 29.8935 9.29358 93.714
2 29.8935 9.29358 101.238
2 32.193 5.31073 78.666
2 32.193 5.31073 86.19
2 32.193 5.31073 93.714
2 32.193 5.31073 101.238
2 34.4925 1.32788 78.666
2 34.4925 1.32788 86.19
2 34.4925 1.32788 93.714
2 34.4925 1.32788 101.238
2 32.193 61.0706 78.666
2 32.193 61.0706 86.19
2 32.193 61.0706 93.714
2 32.193 61.0706 101.238
2 34.4925 57.0878 78.666
2 34.4925 57.0878 86.19
2 34.4925 57.0878 93.714
2 34.4925 57.0878 101.238
2 36.792 53.1049 78.666
2 36.792 53.1049 86.19
2 36.792 53.1049 93.714
2 36.792 53.1049 101.238
2 2.2995 49.1221 78.666
2 2.2995 49.1221 86.19
2 2.2995 49.1221 93.714
2 2.2995 49.1221 101.238
2 4.599 45.1392 78.666
2 4.599 45.1392 86.19
2 4.599 45.1392 93.714
2 4.599 45.1392 101.238
2 6.8985 41.1564 78.666
2 6.8985 41.1564 86.19
2 6.8985 41.1564 93.714
2 6.8985 41.1564 101.238
2 9.198 37.1735 78.666
2 9.198 37.1735 86.19
2 9.198 37.1735 93.714
2 9.198 37.1735 101.238
2 11.4975 33.1907 78.666
2 11.4975 33.1907 86.19
2 11.4975 33.1907 93.714
2 11.4975 33.1907 101.238
2 13.797 29.2078 78.666
2 13.797 29.2078 86.19
2 13.797 29.2078 93.714
2 13.797 29.2078 101.238
2 16.0965 25.225 78.666
2 16.0965 25.225 86.19
2 16.0965 25.225 93.714
2 16.0965 25.225 101.238
2 18.396 21.2421 78.666
2 18.396 21.2421 86.19
2 18.396 21.2421 93.714
2 18.396 21.2421 101.238
2 20.6955 17.2593 78.666
2 20.6955 17.2593 86.19
2 20.6955 17.2593 93.714
2 20.6955 17.2593 101.238
2 22.995 13.2764 78.666
2 22.995 13.2764 86.19
2 22.995 13.2764 93.714
2 22.995 13.2764 101.238
2 25.2945 9.29358 78.666
2 25.2945 9.29358 86.19
2 25.2945 9.29358 93.714
2 25.2945 9.29358 101.238
2 27.594 5.31073 78.666
2 27.594 5.31073 86.19
2 27.594 5.31073 93.714
2 27.594 5.31073 101.238
2 29.8935 1.32788 78.666
2 29.8935 1.32788 86.19
2 29.8935 1.32788 93.714
2 29.8935 1.32788 101.238
2 27.594 61.0706 78.666
2 27.594 61.0706 86.19
2 27.594 61.0706 93.714
2 27.594 61.0706 101.238
2 29.8935 57.0878 78.666
2 29.8935 57.0878 86.19
2 29.8935 57.0878 93.714
2 29.8935 57.0878 101.238
2 32.193 53.1049 78.666
2 32.193 53.1049 86.19
2 32.193 53.1049 93.714
2 32.193 53.1049 101.238
2 34.4925 49.1221 78.666
2 34.4925 49.1221 86.19
2 34.4925 49.1221 93.714
2 34.4925 49.1221 101.238
2 36.792 45.1392 78.666
2 36.792 45.1392 86.19
2 36.792 45.1392 93.714
2 36.792 45.1392 101.238
2 2.2995 41.1564 78.666
2 2.2995 41.1564 86.19
2 2.2995 41.1564 93.714
2 2.2995 41.1564 101.238
2 4.599 37.1735 78.666
2 4.599 37.1735 86.19
2 4.599 37.1735 93.714
2 4.599 37.1735 101.238
2 6.8985 33.1907 78.666
2 6.8985 33.1907 86.19
2 6.8985 33.1907 93.714
2 6.8985 33.1907 101.238
2 9.198 29.2078 78.666
2 9.198 29.2078 86.19
2 9.198 29.2078 93.714
2 9.198 29.2078 101.238
2 11.4975 25.225 78.666
2 11.4975 25.225 86.19
2 11.4975 25.225 93.714
2 11.4975 25.225 101.238
2 13.797 21.2421 78.666
2 13.797 21.2421 86.19
2 13.797 21.2421 93.714
2 13.797 21.2421 101.238
2 16.0965 17.2593 78.666
2 16.0965 17.2593 86.19
2 16.0965 17.2593 93.714
2 16.0965 17.2593 101.238
2 18.396 13.2764 78.666
2 18.396 13.2764 86.19
2 18.396 13.2764 93.714
2 18.396 13.2764 101.238
2 20.6955 9.29358 78.666
2 20.6955 9.29358 86.19
2 20.6955 9.29358 93.714
2 20.6955 9.29358 101.238
2 22.995 5.31073 78.666
2 22.995 5.31073 86.19
2 22.995 5.31073 93.714
2 22.995 5.31073 101.238
2 25.2945 1.32788 78.666
2 25.2945 1.32788 86.19
2 25.2945 1.32788 93.714
2 25.2945 1.32788 101.238
2 22.995 61.0706 78.666
2 22.995 61.0706 86.19
2 22.995 61.0706 93.714
2 22.995 61.0706 101.238
2 25.2945 57.0878 78.666
2 25.2945 57.0878 86.19
2 25.2945 57.0878 93.714
2 25.2945 57.0878 101.238
2 27.594 53.1049 78.666
2 27.594 53.1049 86.19
2 27.594 53.1049 93.714
2 27.594 53.1049 101.238
2 29.8935 49.1221 78.666
2 29.8935 49.1221 86.19
2 29.8935 49.1221 93.714
2 29.8935 49.1221 101.238
2 32.193 45.1392 78.666
2 32.193 45.1392 86.19
2 32.193 45.1392 93.714
2 32.193 45.1392 101.238
2 34.4925 41.1564 78.666
2 34.4925 41.1564 86.19
2 34.4925 41.1564 93.714
2 34.4925 41.1564 101.238
2 0 37.1735 78.666
2 0 37.1735 86.19
2 0 37.1735 93.714
2 0 37.1735 101.238
2 2.2995 33.1907 78.666
2 2.2995 33.1907 86.19
2 2.2995 33.1907 93.714
2 2.2995 33.1907 101.238
2 4.599 29.2078 78.666
2 4.599 29.2078 86.19
2 4.599 29.2078 93.714
2 4.599 29.2078 101.238
2 6.8985 25.225 78.666
2 6.8985 25.225 86.19
2 6.8985 25.225 93.714
2 6.8985 25.225 101.238
2 9.198 21.2421 78.666
2 9.198 21.2421 86.19
2 9.198 21.2421 93.714
2 9.198 21.2421 101.238
2 11.4975 17.2593 78.666
2 11.4975 17.2593 86.19
2 11.4975 17.2593 93.714
2 11.4975 17.2593 101.238
2 13.797 13.2764 78.666
2 13.797 13.2764 86.19
2 13.797 13.2764 93.714
2 13.797 13.2764 101.238
2 16.0965 9.29358 78.666
2 16.0965 9.29358 86.19
2 16.0965 9.29358 93.714
2 16.0965 9.29358 101.238
2 18.396 5.31073 78.666
2 18.396 5.31073 86.19
2 18.396 5.31073 93.714
2 18.396 5.31073 101.238
2 20.6955 1.32788 78.666
2 20.6955 1.32788 86.19
2 20.6955 1.32788 93.714
2 20.6955 1.32788 101.238
2 18.396 61.0706 78.666
2 18.396 61.0706 86.19
2 18.396 61.0706 93.714
2 18.396 61.0706 101.238
2 20.6955 57.0878 78.666
2 20.6955 57.0878 86.19
2 20.6955 57.0878 93.714
2 20.6955 57.0878 101.238
2 22.995 53.1049 78.666
2 22.995 53.1049 86.19
2 22.995 53.1049 93.714
2 22.995 53.1049 101.238
2 25.2945 49.1221 78.666
2 25.2945 49.1221 86.19
2 25.2945 49.1221 93.714
2 25.2945 49.1221 101.238
2 27.594 45.1392 78.666
2 27.594 45.1392 86.19
2 27.594 45.1392 93.714
2 27.594 45.1392 101.238
2 29.8935 41.1564 78.666
2 29.8935 41.1564 86.19
2 29.8935 41.1564 93.714
2 29.8935 41.1564 101.238
2 32.193 37.1735 78.666
2 32.193 37.1735 86.19
2 32.193 37.1735 93.714
2 32.193 37.1735 101.238
2 34.4925 33.1907 78.666
2 34.4925 33.1907 86.19
2 34.4925 33.1907 93.714
2 34.4925 33.1907 101.238
2 0 29.2078 78.666
2 0 29.2078 86.19
2 0 29.2078 93.714
2 0 29.2078 101.238
2 2.2995 25.225 78.666
2 2.2995 25.225 86.19
2 2.2995 25.225 93.714
2 2.2995 25.225 101.238
2 4.599 21.2421 78.666
2 4.599 21.2421 86.19
2 4.599 21.2421 93.714
2 4.599 21.2421 101.238
2 6.8985 17.2593 78.666
2 6.8985 17.2593 86.19
2 6.8985 17.2593 93.714
2 6.8985 17.2593 101.238
2 9.198 13.2764 78.666
2 9.198 13.2764 86.19
2 9.198 13.2764 93.714
2 9.198 13.2764 101.238
2 11.4975 9.29358 78.666
2 11.4975 9.29358 86.19
2 11.4975 9.29358 93.714
2 11.4975 9.29358 101.238
2 13.797 5.31073 78.666
2 13.797 5.31073 86.19
2 13.797 5.31073 93.714
2 13.797 5.31073 101.238
2 16.0965 1.32788 78.666
2 16.0965 1.32788 86.19
2 16.0965 1.32788 93.714
2 16.0965 1.32788 101.238
2 13.797 61.0706 78.666
2 13.797 61.0706 86.19
2 13.797 61.0706 93.714
2 13.797 61.0706 101.238
2 16.0965 57.0878 78.666
2 16.0965 57.0878 86.19
2 16.0965 57.0878 93.714
2 16.0965 57.0878 101.238
2 18.396 53.1049 78.666
2 18.396 53.1049 86.19
2 18.396 53.1049 93.714
2 18.396 53.1049 101.238
2 20.6955 49.1221 78.666
2 20.6955 49.1221 86.19
2 20.6955 49.1221 93.714
2 20.6955 49.1221 101.238
2 22.995 45.1392 78.666
2 22.995 45.1392 86.19
2 22.995 45.1392 93.714
2 22.995 45.1392 101.238
2 25.2945 41.1564 78.666
2 25.2945 41.1564 86.19
2 25.2945 41.1564 93.714
2 25.2945 41.1564 101.238
2 27.594 37.1735 78.666
2 27.594 37.1735 86.19
2 27.594 37.1735 93.714
2 27.594 37.1735 101.238
2 29.8935 33.1907 78.666
2 29.8935 33.1907 86.19
2 29.8935 33.1907 93.714
2 29.8935 33.1907 101.238
2 32.193 29.2078 78.666
2 32.193 29.2078 86.19
2 32.193 29.2078 93.714
2 32.193 29.2078 101.238
2 34.4925 25.225 78.666
2 34.4925 25.225 86.19
2 34.4925 25.225 93.714
2 34.4925 25.225 101.238
2 0 21.2421 78.666
2 0 21.2421 86.19
2 0 21.2421 93.714
2 0 21.2421 101.238
2 2.2995 17.2593 78.666
2 2.2995 17.2593 86.19
2 2.2995 17.2593 93.714
2 2.2995 17.2593 101.238
2 4.599 13.2764 78.666
2 4.599 13.2764 86.19
2 4.599 13.2764 93.714
2 4.599 13.2764 101.238
2 6.8985 9.29358 78.666
2 6.8985 9.29358 86.19
2 6.8985 9.29358 93.714
2 6.8985 9.29358 101.238
2 9.198 5.31073 78.666
2 9.198 5.31073 86.19
2 9.198 5.31073 93.714
2 9.198 5.31073 101.238
2 11.4975 1.32788 78.666
2 11.4975 1.32788 86.19
2 11.4975 1.32788 93.714
2 11.4975 1.32788 101.238
2 9.198 61.0706 78.666
2 9.198 61.0706 86.19
2 9.198 61.0706 93.714
2 9.198 61.0706 101.238
2 11.4975 57.0878 78.666
2 11.4975 57.0878 86.19
2 11.4975 57.0878 93.714
2 11.4975 57.0878 101.238
2 13.797 53.1049 78.666
2 13.797 53.1049 86.19
2 13.797 53.1049 93.714
2 13.797 53.1049 101.238
2 16.0965 49.1221 78.666
2 16.0965 49.1221 86.19
2 16.0965 49.1221 93.714
2 16.0965 49.1221 101.238
2 18.396 45.1392 78.666
2 18.396 45.1392 86.19
2 18.396 45.1392 93.714
2 18.396 45.1392 101.238
2 20.6955 41.1564 78.666
2 20.6955 41.1564 86.19
2 20.6955 41.1564 93.714
2 20.6955 41.1564 101.238
2 22.995 37.1735 78.666
2 22.995 37.1735 86.19
2 22.995 37.1735 93.714
2 22.995 37.1735 101.238
2 25.2945 33.1907 78.666
2 25.2945 33.1907 86.19
2 25.2945 33.1907 93.714
2 25.2945 33.1907 101.238
2 27.594 29.2078 78.666
2 27.594 29.2078 86.19
2 27.594 29.2078 93.714
2 27.594 29.2078 101.238
2 29.8935 25.225 78.666
2 29.8935 25.225 86.19
2 29.8935 25.225 93.714
2 29.8935 25.225 101.238
2 32.193 21.2421 78.666
2 32.193 21.2421 86.19
2 32.193 21.2421 93.714
2 32.193 21.2421 101.238
2 34.4925 17.2593 78.666
2 34.4925 17.2593 86.19
2 34.4925 17.2593 93.714
2 34.4925 17.2593 101.238
2 0 13.2764 78.666
2 0 13.2764 86.19
2 0 13.2764 93.714
2 0 13.2764 101.238
2 2.2995 9.29358 78.666
2 2.2995 9.29358 86.19
2 2.2995 9.29358 93.714
2 2.2995 9.29358 101.238
2 4.599 5.31073 78.666
2 4.599 5.31073 86.19
2 4.599 5.31073 93.714
2 4.599 5.31073 101.238
2 6.8985 1.32788 78.666
2 6.8985 1.32788 86.19
2 6.8985 1.32788 93.714
2 6.8985 1.32788 101.238
2 4.599 61.0706 78.666
2 4.599 61.0706 86.19
2 4.599 61.0706 93.714
2 4.599 61.0706 101.238
2 6.8985 57.0878 78.666
2 6.8985 57.0878 86.19
2 6.8985 57.0878 93.714
2 6.8985 57.0878 101.238
2 9.198 53.1049 78.666
2 9.198 53.1049 86.19
2 9.198 53.1049 93.714
2 9.198 53.1049 101.238
2 11.4975 49.1221 78.666
2 11.4975 49.1221 86.19
2 11.4975 49.1221 93.714
2 11.4975 49.1221 101.238
2 13.797 45.1392 78.666
2 13.797 45.1392 86.19
2 13.797 45.1392 93.714
2 13.797 45.1392 101.238
2 16.0965 41.1564 78.666
2 16.0965 41.1564 86.19
2 16.0965 41.1564 93.714
2 16.0965 41.1564 101.238
2 18.396 37.1735 78.666
2 18.396 37.1735 86.19
2 18.396 37.1735 93.714
2 18.396 37.1735 101.238
2 20.6955 33.1907 78.666
2 20.6955 33.1907 86.19
2 20.6955 33.1907 93.714
2 20.6955 33.1907 101.238
2 22.995 29.2078 78.666
2 22.995 29.2078 86.19
2 22.995 29.2078 93.714
2 22.995 29.2078 101.238
2 25.2945 25.225 78.666
2 25.2945 25.225 86.19
2 25.2945 25.225 93.714
2 25.2945 25.225 101.238
2 27.594 21.2421 78.666
2 27.594 21.2421 86.19
2 27.594 21.2421 93.714
2 27.594 21.2421 101.238
2 29.8935 17.2593 78.666
2 29.8935 17.2593 86.19
2 29.8935 17.2593 93.714
2 29.8935 17.2593 101.238
2 32.193 13.2764 78.666
2 32.193 13.2764 86.19
2 32.193 13.2764 93.714
2 32.193 13.2764 101.238
2 34.4925 9.29358 78.666
2 34.4925 9.29358 86.19
2 34.4925 9.29358 93.714
2 34.4925 9.29358 101.238
2 0 5.31073 78.666
2 0 5.31073 86.19
2 0 5.31073 93.714
2 0 5.31073 101.238
2 2.2995 1.32788 78.666
2 2.2995 1.32788 86.19
2 2.2995 1.32788 93.714
2 2.2995 1.32788 101.238
2 34.4927 62.3981 82.428
2 34.4927 62.3981 89.952
2 34.4927 62.3981 97.476
2 34.4927 62.3981 105
2 0.00022994 58.4153 82.428
2 0.00022994 58.4153 89.952
2 0.00022994 58.4153 97.476
2 0.00022994 58.4153 105
2 2.29973 54.4324 82.428
2 2.29973 54.4324 89.952
2 2.29973 54.4324 97.476
2 2.29973 54.4324 105
2 4.59923 50.4496 82.428
2 4.59923 50.4496 89.952
2 4.59923 50.4496 97.476
2 4.59923 50.4496 105
2 6.89873 46.4667 82.428
2 6.89873 46.4667 89.952
2 6.89873 46.4667 97.476
2 6.89873 46.4667 105
2 9.19823 42.4839 82.428
2 9.19823 42.4839 89.952
2 9.19823 42.4839 97.476
2 9.19823 42.4839 105
2 11.4977 38.501 82.428
2 11.4977 38.501 89.952
2 11.4977 38.501 97.476
2 11.4977 38.501 105
2 13.7972 34.5182 82.428
2 13.7972 34.5182 89.952
2 13.7972 34.5182 97.476
2 13.7972 34.5182 105
2 16.0967 30.5353 82.428
2 16.0967 30.5353 89.952
2 16.0967 30.5353 97.476
2 16.0967 30.5353 105
2 18.3962 26.5525 82.428
2 18.3962 26.5525 89.952
2 18.3962 26.5525 97.476
2 18.3962 26.5525 105
2 20.6957 22.5696 82.428
2 20.6957 22.5696 89.952
2 20.6957 22.5696 97.476
2 20.6957 22.5696 105
2 22.9952 18.5868 82.428
2 22.9952 18.5868 89.952
2 22.9952 18.5868 97.476
2 22.9952 18.5868 105
2 25.2947 14.6039 82.428
2 25.2947 14.6039 89.952
2 25.2947 14.6039 97.476
2 25.2947 14.6039 105
2 27.5942 10.6211 82.428
2 27.5942 10.6211 89.952
2 27.5942 10.6211 97.476
2 27.5942 10.6211 105
2 29.8937 6.63822 82.428
2 29.8937 6.63822 89.952
2 29.8937 6.63822 97.476
2 29.8937 6.63822 105
2 32.1932 2.65537 82.428
2 32.1932 2.65537 89.952
2 32.1932 2.65537 97.476
2 32.1932 2.65537 105
2 29.8937 62.3981 82.428
2 29.8937 62.3981 89.952
2 29.8937 62.3981 97.476
2 29.8937 62.3981 105
2 32.1932 58.4153 82.428
2 32.1932 58.4153 89.952
2 32.1932 58.4153 97.476
2 32.1932 58.4153 105
2 34.4927 54.4324 82.428
2 34.4927 54.4324 89.952
2 34.4927 54.4324 97.476
2 34.4927 54.4324 105
2 0.00022994 50.4496 82.428
2 0.00022994 50.4496 89.952
2 0.00022994 50.4496 97.476
2 0.00022994 50.4496 105
2 2.29973 46.4667 82.428
2 2.29973 46.4667 89.952
2 2.29973 46.4667 97.476
2 2.29973 46.4667 105
2 4.59923 42.4839 82.428
2 4.59923 42.4839 89.952
2 4.59923 42.4839 97.476
2 4.59923 42.4839 105
2 6.89873 38.501 82.428
2 6.89873 38.501 89.952
2 6.89873 38.501 97.476
2 6.89873 38.501 105
2 9.19823 34.5182 82.428
2 9.19823 34.5182 89.952
2 9.19823 34.5182 97.476
2 9.19823 34.5182 105
2 11.4977 30.5353 82.428
2 11.4977 30.5353 89.952
2 11.4977 30.5353 97.476
2 11.4977 30.5353 105
2 13.7972 26.5525 82.428
2 13.7972 26.5525 89.952
2 13.7972 26.5525 97.476
2 13.7972 26.5525 105
2 16.0967 22.5696 82.428
2 16.0967 22.5696 89.952
2 16.0967 22.5696 97.476
2 16.0967 22.5696 105
2 18.3962 18.5868 82.428
2 18.3962 18.5868 89.952
2 18.3962 18.5868 97.476
2 18.3962 18.5868 105
2 20.6957 14.6039 82.428
2 20.6957 14.6039 89.952
2 20.6957 14.6039 97.476
2 20.6957 14.6039 105
2 22.9952 10.6211 82.428
2 22.9952 10.6211 89.952
2 22.9952 10.6211 97.476
2 22.9952 10.6211 105
2 25.2947 6.63822 82.428
2 25.2947 6.63822 89.952
2 25.2947 6.63822 97.476
2 25.2947 6.63822 105
2 27.5942 2.65537 82.428
2 27.5942 2.65537 89.952
2 27.5942 2.65537 97.476
2 27.5942 2.65537 105
2 25.2947 62.3981 82.428
2 25.2947 62.3981 89.952
2 25.2947 62.3981 97.476
2 25.2947 62.3981 105
2 27.5942 58.4153 82.428
2 27.5942 58.4153 89.952
2 27.5942 58.4153 97.476
2 27.5942 58.4153 105
2 29.8937 54.4324 82.428
2 29.8937 54.4324 89.952
2 29.8937 54.4324 97.476
2 29.8937 54.4324 105
2 32.1932 50.4496 82.428
2 32.1932 50.4496 89.952
2 32.1932 50.4496 97.476
2 32.1932 50.4496 105
2 34.4927 46.4667 82.428
2 34.4927 46.4667 89.952
2 34.4927 46.4667 97.476
2 34.4927 46.4667 105
2 0.00022995 42.4839 82.428
2 0.00022995 42.4839 89.952
2 0.00022995 42.4839 97.476
2 0.00022995 42.4839 105
2 2.29973 38.501 82.428
2 2.29973 38.501 89.952
2 2.29973 38.501 97.476
2 2.29973 38.501 105
2 4.59923 34.5182 82.428
2 4.59923 34.5182 89.952
2 4.59923 34.5182 97.476
2 4.59923 34.5182 105
2 6.89873 30.5353 82.428
2 6.89873 30.5353 89.952
2 6.89873 30.5353 97.476
2 6.89873 30.5353 105
2 9.19823 26.5525 82.428
2 9.19823 26.5525 89.952
2 9.19823 26.5525 97.476
2 9.19823 26.5525 105
2 11.4977 22.5696 82.428
2 11.4977 22.5696 89.952
2 11.4977 22.5696 97.476
2 11.4977 22.5696 105
2 13.7972 18.5868 82.428
2 13.7972 18.5868 89.952
2 13.7972 18.5868 97.476
2 13.7972 18.5868 105
2 16.0967 14.6039 82.428
2 16.0967 14.6039 89.952
2 16.0967 14.6039 97.476
2 16.0967 14.6039 105
2 18.3962 10.6211 82.428
2 18.3962 10.6211 89.952
2 18.3962 10.6211 97.476
2 18.3962 10.6211 105
2 20.6957 6.63822 82.428
2 20.6957 6.63822 89.952
2 20.6957 6.63822 97.476
2 20.6957 6.63822 105
2 22.9952 2.65537 82.428
2 22.9952 2.65537 89.952
2 22.9952 2.65537 97.476
2 22.9952 2.65537 105
2 20.6957 62.3981 82.428
2 20.6957 62.3981 89.952
2 20.6957 62.3981 97.476
2 20.6957 62.3981 105
2 22.9952 58.4153 82.428
2 22.9952 58.4153 89.952
2 22.9952 58.4153 97.476
2 22.9952 58.4153 105
2 25.2947 54.4324 82.428
2 25.2947 54.4324 89.952
2 25.2947 54.4324 97.476
2 25.2947 54.4324 105
2 27.5942 50.4496 82.428
2 27.5942 50.4496 89.952
2 27.5942 50.4496 97.476
2 27.5942 50.4496 105
2 29.8937 46.4667 82.428
2 29.8937 46.4667 89.952
2 29.8937 46.4667 97.476
2 29.8937 46.4667 105
2 32.1932 42.4839 82.428
2 32.1932 42.4839 89.952
2 32.1932 42.4839 97.476
2 32.1932 42.4839 105
2 34.4927 38.501 82.428
2 34.4927 38.501 89.952
2 34.4927 38.501 97.476
2 34.4927 38.501 105
2 0.00022995 34.5182 82.428
2 0.00022995 34.5182 89.952
2 0.00022995 34.5182 97.476
2 0.00022995 34.5182 105
2 2.29973 30.5353 82.428
2 2.29973 30.5353 89.952
2 2.29973 30.5353 97.476
2 2.29973 30.5353 105
2 4.59923 26.5525 82.428
2 4.59923 26.5525 89.952
2 4.59923 26.5525 97.476
2 4.59923 26.5525 105
2 6.89873 22.5696 82.428
2 6.89873 22.5696 89.952
2 6.89873 22.5696 97.476
2 6.89873 22.5696 105
2 9.19823 18.5868 82.428
2 9.19823 18.5868 89.952
2 9.19823 18.5868 97.476
2 9.19823 18.5868 105
2 11.4977 14.6039 82.428
2 11.4977 14.6039 89.952
2 11.4977 14.6039 97.476
2 11.4977 14.6039 105
2 13.7972 10.6211 82.428
2 13.7972 10.6211 89.952
2 13.7972 10.6211 97.476
2 13.7972 10.6211 105
2 16.0967 6.63822 82.428
2 16.0967 6.63822 89.952
2 16.0967 6.63822 97.476
2 16.0967 6.63822 105
2 18.3962 2.65537 82.428
2 18.3962 2.65537 89.952
2 18.3962 2.65537 97.476
2 18.3962 2.65537 105
2 16.0967 62.3981 82.428
2 16.0967 62.3981 89.952
2 16.0967 62.3981 97.476
2 16.0967 62.3981 105
2 18.3962 58.4153 82.428
2 18.3962 58.4153 89.952
2 18.3962 58.4153 97.476
2 18.3962 58.4153 105
2 20.6957 54.4324 82.428
2 20.6957 54.4324 89.952
2 20.6957 54.4324 97.476
2 20.6957 54.4324 105
2 22.9952 50.4496 82.428
2 22.9952 50.4496 89.952
2 22.9952 50.4496 97.476
2 22.9952 50.4496 105
2 25.2947 46.4667 82.428
2 25.2947 46.4667 89.952
2 25.2947 46.4667 97.476
2 25.2947 46.4667 105
2 27.5942 42.4839 82.428
2 27.5942 42.4839 89.952
2 27.5942 42.4839 97.476
2 27.5942 42.4839 105
2 29.8937 38.501 82.428
2 29.8937 38.501 89.952
2 29.8937 38.501 97.476
2 29.8937 38.501 105
2 32.1932 34.5182 82.428
2 32.1932 34.5182 89.952
2 32.1932 34.5182 97.476
2 32.1932 34.5182 105
2 34.4927 30.5353 82.428
2 34.4927 30.5353 89.952
2 34.4927 30.5353 97.476
2 34.4927 30.5353 105
2 0.00022995 26.5525 82.428
2 0.00022995 26.5525 89.952
2 0.00022995 26.5525 97.476
2 0.00022995 26.5525 105
2 2.29973 22.5696 82.428
2 2.29973 22.5696 89.952
2 2.29973 22.5696 97.476
2 2.29973 22.5696 105
2 4.59923 18.5868 82.428
2 4.59923 18.5868 89.952
2 4.59923 18.5868 97.476
2 4.59923 18.5868 105
2 6.89873 14.6039 82.428
2 6.89873 14.6039 89.952
2 6.89873 14.6039 97.476
2 6.89873 14.6039 105
2 9.19823 10.6211 82.428
2 9.19823 10.6211 89.952
2 9.19823 10.6211 97.476
2 9.19823 10.6211 105
2 11.4977 6.63822 82.428
2 11.4977 6.63822 89.952
2 11.4977 6.63822 97.476
2 11.4977 6.63822 105
2 13.7972 2.65537 82.428
2 13.7972 2.65537 89.952
2 13.7972 2.65537 97.476
2 13.7972 2.65537 105
2 11.4977 62.3981 82.428
2 11.4977 62.3981 89.952
2 11.4977 62.3981 97.476
2 11.4977 62.3981 105
2 13.7972 58.4153 82.428
2 13.7972 58.4153 89.952
2 13.7972 58.4153 97.476
2 13.7972 58.4153 105
2 16.0967 54.4324 82.428
2 16.0967 54.4324 89.952
2 16.0967 54.4324 97.476
2 16.0967 54.4324 105
2 18.3962 50.4496 82.428
2 18.3962 50.4496 89.952
2 18.3962 50.4496 97.476
2 18.3962 50.4496 105
2 20.6957 46.4667 82.428
2 20.6957 46.4667 89.952
2 20.6957 46.4667 97.476
2 20.6957 46.4667 105
2 22.9952 42.4839 82.428
2 22.9952 42.4839 89.952
2 22.9952 42.4839 97.476
2 22.9952 42.4839 105
2 25.2947 38.501 82.428
2 25.2947 38.501 89.952
2 25.2947 38.501 97.476
2 25.2947 38.501 105
2 27.5942 34.5182 82.428
2 27.5942 34.5182 89.952
2 27.5942 34.5182 97.476
2 27.5942 34.5182 105
2 29.8937 30.5353 82.428
2 29.8937 30.5353 89.952
2 29.8937 30.5353 97.476
2 29.8937 30.5353 105
2 32.1932 26.5525 82.428
2 32.1932 26.5525 89.952
2 32.1932 26.5525 97.476
2 32.1932 26.5525 105
2 34.4927 22.5696 82.428
2 34.4927 22.5696 89.952
2 34.4927 22.5696 97.476
2 34.4927 22.5696 105
2 0.00022995 18.5868 82.428
2 0.00022995 18.5868 89.952
2 0.00022995 18.5868 97.476
2 0.00022995 18.5868 105
2 2.29973 14.6039 82.428
2 2.29973 14.6039 89.952
2 2.29973 14.6039 97.476
2 2.29973 14.6039 105
2 4.59923 10.6211 82.428
2 4.59923 10.6211 89.952
2 4.59923 10.6211 97.476
2 4.59923 10.6211 105
2 6.89873 6.63822 82.428
2 6.89873 6.63822 89.952
2 6.89873 6.63822 97.476
2 6.89873 6.63822 105
2 9.19823 2.65537 82.428
2 9.19823 2.65537 89.952
2 9.19823 2.65537 97.476
2 9.19823 2.65537 105
2 6.89873 62.3981 82.428
2 6.89873 62.3981 89.952
2 6.89873 62.3981 97.476
2 6.89873 62.3981 105
2 9.19823 58.4153 82.428
2 9.19823 58.4153 89.952
2 9.19823 58.4153 97.476
2 9.19823 58.4153 105
2 11.4977 54.4324 82.428
2 11.4977 54.4324 89.952
2 11.4977 54.4324 97.476
2 11.4977 54.4324 105
2 13.7972 50.4496 82.428
2 13.7972 50.4496 89.952
2 13.7972 50.4496 97.476
2 13.7972 50.4496 105
2 16.0967 46.4667 82.428
2 16.0967 46.4667 89.952
2 16.0967 46.4667 97.476
2 16.0967 46.4667 105
2 18.3962 42.4839 82.428
2 18.3962 42.4839 89.952
2 18.3962 42.4839 97.476
2 18.3962 42.4839 105
2 20.6957 38.501 82.428
2 20.6957 38.501 89.952
2 20.6957 38.501 97.476
2 20.6957 38.501 105
2 22.9952 34.5182 82.428
2 22.9952 34.5182 89.952
2 22.9952 34.5182 97.476
2 22.9952 34.5182 105
2 25.2947 30.5353 82.428
2 25.2947 30.5353 89.952
2 25.2947 30.5353 97.476
2 25.2947 30.5353 105
2 27.5942 26.5525 82.428
2 27.5942 26.5525 89.952
2 27.5942 26.5525 97.476
2 27.5942 26.5525 105
2 29.8937 22.5696 82.428
2 29.8937 22.5696 89.952
2 29.8937 22.5696 97.476
2 29.8937 22.5696 105
2 32.1932 18.5868 82.428
2 32.1932 18.5868 89.952
2 32.1932 18.5868 97.476
2 32.1932 18.5868 105
2 34.4927 14.6039 82.428
2 34.4927 14.6039 89.952
2 34.4927 14.6039 97.476
2 34.4927 14.6039 105
2 0.00022995 10.6211 82.428
2 0.00022995 10.6211 89.952
2 0.00022995 10.6211 97.476
2 0.00022995 10.6211 105
2 2.29973 6.63822 82.428
2 2.29973 6.63822 89.952
2 2.29973 6.63822 97.476
2 2.29973 6.63822 105
2 4.59923 2.65537 82.428
2 4.59923 2.65537 89.952
2 4.59923 2.65537 97.476
2 4.59923 2.65537 105
2 2.29973 62.3981 82.428
2 2.29973 62.3981 89.952
2 2.29973 62.3981 97.476
2 2.29973 62.3981 105
2 4.59923 58.4153 82.428
2 4.59923 58.4153 89.952
2 4.59923 58.4153 97.476
2 4.59923 58.4153 105
2 6.89873 54.4324 82.428
2 6.89873 54.4324 89.952
2 6.89873 54.4324 97.476
2 6.89873 54.4324 105
2 9.19823 50.4496 82.428
2 9.19823 50.4496 89.952
2 9.19823 50.4496 97.476
2 9.19823 50.4496 105
2 11.4977 46.4667 82.428
2 11.4977 46.4667 89.952
2 11.4977 46.4667 97.476
2 11.4977 46.4667 105
2 13.7972 42.4839 82.428
2 13.7972 42.4839 89.952
2 13.7972 42.4839 97.476
2 13.7972 42.4839 105
2 16.0967 38.501 82.428
2 16.0967 38.501 89.952
2 16.0967 38.501 97.476
2 16.0967 38.501 105
2 18.3962 34.5182 82.428
2 18.3962 34.5182 89.952
2 18.3962 34.5182 97.476
2 18.3962 34.5182 105
2 20.6957 30.5353 82.428
2 20.6957 30.5353 89.952
2 20.6957 30.5353 97.476
2 20.6957 30.5353 105
2 22.9952 26.5525 82.428
2 22.9952 26.5525 89.952
2 22.9952 26.5525 97.476
2 22.9952 26.5525 105
2 25.2947 22.5696 82.428
2 25.2947 22.5696 89.952
2 25.2947 22.5696 97.476
2 25.2947 22.5696 105
2 27.5942 18.5868 82.428
2 27.5942 18.5868 89.952
2 27.5942 18.5868 97.476
2 27.5942 18.5868 105
2 29.8937 14.6039 82.428
2 29.8937 14.6039 89.952
2 29.8937 14.6039 97.476
2 29.8937 14.6039 105
2 32.1932 10.6211 82.428
2 32.1932 10.6211 89.952
2 32.1932 10.6211 97.476
2 32.1932 10.6211 105
2 34.4927 6.63822 82.428
2 34.4927 6.63822 89.952
2 34.4927 6.63822 97.476
2 34.4927 6.63822 105
2 0.00022995 2.65537 82.428
2 0.00022995 2.65537 89.952
2 0.00022995 2.65537 97.476
2 0.00022995 2.65537 105
1 36.792 61.0706 81.483
1 36.792 61.0706 89.007
1 36.792 61.0706 96.531
1 36.792 61.0706 104.055
1 2.2995 57.0878 81.483
1 2.2995 57.0878 89.007
1 2.2995 57.0878 96.531
1 2.2995 57.0878 104.055
1 4.599 53.1049 81.483
1 4.599 53.1049 89.007
1 4.599 53.1049 96.531
1 4.599 53.1049 104.055
1 6.8985 49.1221 81.483
1 6.8985 49.1221 89.007
1 6.8985 49.1221 96.531
1 6.8985 49.1221 104.055
1 9.198 45.1392 81.483
1 9.198 45.1392 89.007
1 9.198 45.1392 96.531
1 9.198 45.1392 104.055
1 11.4975 41.1564 81.483
1 11.4975 41.1564 89.007
1 11.4975 41.1564 96.531
1 11.4975 41.1564 104.055
1 13.797 37.1735 81.483
1 13.797 37.1735 89.007
1 13.797 37.1735 96.531
1 13.797 37.1735 104.055
1 16.0965 33.1907 81.483
1 16.0965 33.1907 89.007
1 16.0965 33.1907 96.531
1 16.0965 33.1907 104.055
1 18.396 29.2078 81.483
1 18.396 29.2078 89.007
1 18.396 29.2078 96.531
1 18.396 29.2078 104.055
1 20.6955 25.225 81.483
1 20.6955 25.225 89.007
1 20.6955 25.225 96.531
1 20.6955 25.225 104.055
1 22.995 21.2421 81.483
1 22.995 21.2421 89.007
1 22.995 21.2421 96.531
1 22.995 21.2421 104.055
1 25.2945 17.2593 81.483
1 25.2945 17.2593 89.007
1 25.2945 17.2593 96.531
1 25.2945 17.2593 104.055
1 27.594 13.2764 81.483
1 27.594 13.2764 89.007
1 27.594 13.2764 96.531
1 27.594 13.2764 104.055
1 29.8935 9.29358 81.483
1 29.8935 9.29358 89.007
1 29.8935 9.29358 96.531
1 29.8935 9.29358 104.055
1 32.193 5.31073 81.483
1 32.193 5.31073 89.007
1 32.193 5.31073 96.531
1 32.193 5.31073 104.055
1 34.4925 1.32788 81.483
1 34.4925 1.32788 89.007
1 34.4925 1.32788 96.531
1 34.4925 1.32788 104.055
1 32.193 61.0706 81.483
1 32.193 61.0706 89.007
1 32.193 61.0706 96.531
1 32.193 61.0706 104.055
1 34.4925 57.0878 81.483
1 34.4925 57.0878 89.007
1 34.4925 57.0878 96.531
1 34.4925 57.0878 104.055
1 36.792 53.1049 81.483
1 36.792 53.1049 89.007
1 36.792 53.1049 96.531
1 36.792 53.1049 104.055
1 2.2995 49.1221 81.483
1 2.2995 49.1221 89.007
1 2.2995 49.1221 96.531
1 2.2995 49.1221 104.055
1 4.599 45.1392 81.483
1 4.599 45.1392 89.007
1 4.599 45.1392 96.531
1 4.599 45.1392 104.055
1 6.8985 41.1564 81.483
1 6.8985 41.1564 89.007
1 6.8985 41.1564 96.531
1 6.8985 41.1564 104.055
1 9.198 37.1735 81.483
1 9.198 37.1735 89.007
1 9.198 37.1735 96.531
1 9.198 37.1735 104.055
1 11.4975 33.1907 81.483
1 11.4975 33.1907 89.007
1 11.4975 33.1907 96.531
1 11.4975 33.1907 104.055
1 13.797 29.2078 81.483
1 13.797 29.2078 89.007
1 13.797 29.2078 96.531
1 13.797 29.2078 104.055
1 16.0965 25.225 81.483
1 16.0965 25.225 89.007
1 16.0965 25.225 96.531
1 16.0965 25.225 104.055
1 18.396 21.2421 81.483
1 18.396 21.2421 89.007
1 18.396 21.2421 96.531
1 18.396 21.2421 104.055
1 20.6955 17.2593 81.483
1 20.6955 17.2593 89.007
1 20.6955 17.2593 96.531
1 20.6955 17.2593 104.055
1 22.995 13.2764 81.483
1 22.995 13.2764 89.007
1 22.995 13.2764 96.531
1 22.995 13.2764 104.055
1 25.2945 9.29358 81.483
1 25.2945 9.29358 89.007
1 25.2945 9.29358 96.531
1 25.2945 9.29358 104.055
1 27.594 5.31073 81.483
1 27.594 5.31073 89.007
1 27.594 5.31073 96.531
1 27.594 5.31073 104.055
1 29.8935 1.32788 81.483
1 29.8935 1.32788 89.007
1 29.8935 1.32788 96.531
1 29.8935 1.32788 104.055
1 27.594 61.0706 81.483
1 27.594 61.0706 89.007
1 27.594 61.0706 96.531
1 27.594 61.0706 104.055
1 29.8935 57.0878 81.483
1 29.8935 57.0878 89.007
1 29.8935 57.0878 96.531
1 29.8935 57.0878 104.055
1 32.193 53.1049 81.483
1 32.193 53.1049 89.007
1 32.193 53.1049 96.531
1 32.193 53.1049 104.055
1 34.4925 49.1221 81.483
1 34.4925 49.1221 89.007
1 34.4925 49.1221 96.531
1 34.4925 49.1221 104.055
1 36.792 45.1392 81.483
1 36.792 45.1392 89.007
1 36.792 45.1392 96.531
1 36.792 45.1392 104.055
1 2.2995 41.1564 81.483
1 2.2995 41.1564 89.007
1 2.2995 41.1564 96.531
1 2.2995 41.1564 104.055
1 4.599 37.1735 81.483
1 4.599 37.1735 89.007
1 4.599 37.1735 96.531
1 4.599 37.1735 104.055
1 6.8985 33.1907 81.483
1 6.8985 33.1907 89.007
1 6.8985 33.1907 96.531
1 6.8985 33.1907 104.055
1 9.198 29.2078 81.483
1 9.198 29.2078 89.007
1 9.198 29.2078 96.531
1 9.198 29.2078 104.055
1 11.4975 25.225 81.483
1 11.4975 25.225 89.007
1 11.4975 25.225 96.531
1 11.4975 25.225 104.055
1 13.797 21.2421 81.483
1 13.797 21.2421 89.007
1 13.797 21.2421 96.531
1 13.797 21.2421 104.055
1 16.0965 17.2593 81.483
1 16.0965 17.2593 89.007
1 16.0965 17.2593 96.531
1 16.0965 17.2593 104.055
1 18.396 13.2764 81.483
1 18.396 13.2764 89.007
1 18.396 13.2764 96.531
1 18.396 13.2764 104.055
1 20.6955 9.29358 81.483
1 20.6955 9.29358 89.007
1 20.6955 9.29358 96.531
1 20.6955 9.29358 104.055
1 22.995 5.31073 81.483
1 22.995 5.31073 89.007
1 22.995 5.31073 96.531
1 22.995 5.31073 104.055
1 25.2945 1.32788 81.483
1 25.2945 1.32788 89.007
1 25.2945 1.32788 96.531
1 25.2945 1.32788 104.055
1 22.995 61.0706 81.483
1 22.995 61.0706 89.007
1 22.995 61.0706 96.531
1 22.995 61.0706 104.055
1 25.2945 57.0878 81.483
1 25.2945 57.0878 89.007
1 25.2945 57.0878 96.531
1 25.2945 57.0878 104.055
1 27.594 53.1049 81.483
1 27.594 53.1049 89.007
1 27.594 53.1049 96.531
1 27.594 53.1049 104.055
1 29.8935 49.1221 81.483
1 29.8935 49.1221 89.007
1 29.8935 49.1221 96.531
1 29.8935 49.1221 104.055
1 32.193 45.1392 81.483
1 32.193 45.1392 89.007
1 32.193 45.1392 96.531
1 32.193 45.1392 104.055
1 34.4925 41.1564 81.483