
12288 atoms 
5 atom types 

0.00000000 36.79200000 xlo xhi
0.00000000 63.72561331 ylo yhi
0.00000000 120.00000000 zlo zhi
0.00000  0.00000000 0.00000000 xy xz yz

Masses 

1 107.868 
2 126.904 
3 15.9994 
4 1.008
5 1.0e-100

Atoms 

1 1 0.60000000 -0.00022995  2.65536665 4.70701440
2 1 0.60000000 -0.00022995  2.65536665 12.23101440
3 1 0.60000000 -0.00022995  2.65536665 19.75501440
4 1 0.60000000 -0.00022995  2.65536665 27.27901440
5 1 0.60000000 -2.29972995  6.63821748 4.70701440
6 1 0.60000000 -2.29972995  6.63821748 12.23101440
7 1 0.60000000 -2.29972995  6.63821748 19.75501440
8 1 0.60000000 -2.29972995  6.63821748 27.27901440
9 1 0.60000000 -4.59922995  10.62106831 4.70701440
10 1 0.60000000 -4.59922995  10.62106831 12.23101440
11 1 0.60000000 -4.59922995  10.62106831 19.75501440
12 1 0.60000000 -4.59922995  10.62106831 27.27901440
13 1 0.60000000 -6.89872995  14.60391915 4.70701440
14 1 0.60000000 -6.89872995  14.60391915 12.23101440
15 1 0.60000000 -6.89872995  14.60391915 19.75501440
16 1 0.60000000 -6.89872995  14.60391915 27.27901440
17 1 0.60000000 -9.19822995  18.58676998 4.70701440
18 1 0.60000000 -9.19822995  18.58676998 12.23101440
19 1 0.60000000 -9.19822995  18.58676998 19.75501440
20 1 0.60000000 -9.19822995  18.58676998 27.27901440
21 1 0.60000000 -11.49772995  22.56962081 4.70701440
22 1 0.60000000 -11.49772995  22.56962081 12.23101440
23 1 0.60000000 -11.49772995  22.56962081 19.75501440
24 1 0.60000000 -11.49772995  22.56962081 27.27901440
25 1 0.60000000 -13.79722995  26.55247164 4.70701440
26 1 0.60000000 -13.79722995  26.55247164 12.23101440
27 1 0.60000000 -13.79722995  26.55247164 19.75501440
28 1 0.60000000 -13.79722995  26.55247164 27.27901440
29 1 0.60000000 -16.09672995  30.53532247 4.70701440
30 1 0.60000000 -16.09672995  30.53532247 12.23101440
31 1 0.60000000 -16.09672995  30.53532247 19.75501440
32 1 0.60000000 -16.09672995  30.53532247 27.27901440
33 1 0.60000000 -18.39622995  34.51817330 4.70701440
34 1 0.60000000 -18.39622995  34.51817330 12.23101440
35 1 0.60000000 -18.39622995  34.51817330 19.75501440
36 1 0.60000000 -18.39622995  34.51817330 27.27901440
37 1 0.60000000 -20.69572995  38.50102414 4.70701440
38 1 0.60000000 -20.69572995  38.50102414 12.23101440
39 1 0.60000000 -20.69572995  38.50102414 19.75501440
40 1 0.60000000 -20.69572995  38.50102414 27.27901440
41 1 0.60000000 -22.99522995  42.48387497 4.70701440
42 1 0.60000000 -22.99522995  42.48387497 12.23101440
43 1 0.60000000 -22.99522995  42.48387497 19.75501440
44 1 0.60000000 -22.99522995  42.48387497 27.27901440
45 1 0.60000000 -25.29472996  46.46672580 4.70701440
46 1 0.60000000 -25.29472996  46.46672580 12.23101440
47 1 0.60000000 -25.29472996  46.46672580 19.75501440
48 1 0.60000000 -25.29472996  46.46672580 27.27901440
49 1 0.60000000 -27.59422996  50.44957663 4.70701440
50 1 0.60000000 -27.59422996  50.44957663 12.23101440
51 1 0.60000000 -27.59422996  50.44957663 19.75501440
52 1 0.60000000 -27.59422996  50.44957663 27.27901440
53 1 0.60000000 -29.89372996  54.43242746 4.70701440
54 1 0.60000000 -29.89372996  54.43242746 12.23101440
55 1 0.60000000 -29.89372996  54.43242746 19.75501440
56 1 0.60000000 -29.89372996  54.43242746 27.27901440
57 1 0.60000000 -32.19322996  58.41527829 4.70701440
58 1 0.60000000 -32.19322996  58.41527829 12.23101440
59 1 0.60000000 -32.19322996  58.41527829 19.75501440
60 1 0.60000000 -32.19322996  58.41527829 27.27901440
61 1 0.60000000 -34.49272996  62.39812913 4.70701440
62 1 0.60000000 -34.49272996  62.39812913 12.23101440
63 1 0.60000000 -34.49272996  62.39812913 19.75501440
64 1 0.60000000 -34.49272996  62.39812913 27.27901440
65 1 0.60000000 4.59877005  2.65536665 4.70701440
66 1 0.60000000 4.59877005  2.65536665 12.23101440
67 1 0.60000000 4.59877005  2.65536665 19.75501440
68 1 0.60000000 4.59877005  2.65536665 27.27901440
69 1 0.60000000 2.29927005  6.63821748 4.70701440
70 1 0.60000000 2.29927005  6.63821748 12.23101440
71 1 0.60000000 2.29927005  6.63821748 19.75501440
72 1 0.60000000 2.29927005  6.63821748 27.27901440
73 1 0.60000000 -0.00022995  10.62106831 4.70701440
74 1 0.60000000 -0.00022995  10.62106831 12.23101440
75 1 0.60000000 -0.00022995  10.62106831 19.75501440
76 1 0.60000000 -0.00022995  10.62106831 27.27901440
77 1 0.60000000 -2.29972995  14.60391915 4.70701440
78 1 0.60000000 -2.29972995  14.60391915 12.23101440
79 1 0.60000000 -2.29972995  14.60391915 19.75501440
80 1 0.60000000 -2.29972995  14.60391915 27.27901440
81 1 0.60000000 -4.59922995  18.58676998 4.70701440
82 1 0.60000000 -4.59922995  18.58676998 12.23101440
83 1 0.60000000 -4.59922995  18.58676998 19.75501440
84 1 0.60000000 -4.59922995  18.58676998 27.27901440
85 1 0.60000000 -6.89872995  22.56962081 4.70701440
86 1 0.60000000 -6.89872995  22.56962081 12.23101440
87 1 0.60000000 -6.89872995  22.56962081 19.75501440
88 1 0.60000000 -6.89872995  22.56962081 27.27901440
89 1 0.60000000 -9.19822995  26.55247164 4.70701440
90 1 0.60000000 -9.19822995  26.55247164 12.23101440
91 1 0.60000000 -9.19822995  26.55247164 19.75501440
92 1 0.60000000 -9.19822995  26.55247164 27.27901440
93 1 0.60000000 -11.49772995  30.53532247 4.70701440
94 1 0.60000000 -11.49772995  30.53532247 12.23101440
95 1 0.60000000 -11.49772995  30.53532247 19.75501440
96 1 0.60000000 -11.49772995  30.53532247 27.27901440
97 1 0.60000000 -13.79722995  34.51817330 4.70701440
98 1 0.60000000 -13.79722995  34.51817330 12.23101440
99 1 0.60000000 -13.79722995  34.51817330 19.75501440
100 1 0.60000000 -13.79722995  34.51817330 27.27901440
101 1 0.60000000 -16.09672995  38.50102414 4.70701440
102 1 0.60000000 -16.09672995  38.50102414 12.23101440
103 1 0.60000000 -16.09672995  38.50102414 19.75501440
104 1 0.60000000 -16.09672995  38.50102414 27.27901440
105 1 0.60000000 -18.39622995  42.48387497 4.70701440
106 1 0.60000000 -18.39622995  42.48387497 12.23101440
107 1 0.60000000 -18.39622995  42.48387497 19.75501440
108 1 0.60000000 -18.39622995  42.48387497 27.27901440
109 1 0.60000000 -20.69572996  46.46672580 4.70701440
110 1 0.60000000 -20.69572996  46.46672580 12.23101440
111 1 0.60000000 -20.69572996  46.46672580 19.75501440
112 1 0.60000000 -20.69572996  46.46672580 27.27901440
113 1 0.60000000 -22.99522996  50.44957663 4.70701440
114 1 0.60000000 -22.99522996  50.44957663 12.23101440
115 1 0.60000000 -22.99522996  50.44957663 19.75501440
116 1 0.60000000 -22.99522996  50.44957663 27.27901440
117 1 0.60000000 -25.29472996  54.43242746 4.70701440
118 1 0.60000000 -25.29472996  54.43242746 12.23101440
119 1 0.60000000 -25.29472996  54.43242746 19.75501440
120 1 0.60000000 -25.29472996  54.43242746 27.27901440
121 1 0.60000000 -27.59422996  58.41527829 4.70701440
122 1 0.60000000 -27.59422996  58.41527829 12.23101440
123 1 0.60000000 -27.59422996  58.41527829 19.75501440
124 1 0.60000000 -27.59422996  58.41527829 27.27901440
125 1 0.60000000 -29.89372996  62.39812913 4.70701440
126 1 0.60000000 -29.89372996  62.39812913 12.23101440
127 1 0.60000000 -29.89372996  62.39812913 19.75501440
128 1 0.60000000 -29.89372996  62.39812913 27.27901440
129 1 0.60000000 9.19777005  2.65536665 4.70701440
130 1 0.60000000 9.19777005  2.65536665 12.23101440
131 1 0.60000000 9.19777005  2.65536665 19.75501440
132 1 0.60000000 9.19777005  2.65536665 27.27901440
133 1 0.60000000 6.89827005  6.63821748 4.70701440
134 1 0.60000000 6.89827005  6.63821748 12.23101440
135 1 0.60000000 6.89827005  6.63821748 19.75501440
136 1 0.60000000 6.89827005  6.63821748 27.27901440
137 1 0.60000000 4.59877005  10.62106831 4.70701440
138 1 0.60000000 4.59877005  10.62106831 12.23101440
139 1 0.60000000 4.59877005  10.62106831 19.75501440
140 1 0.60000000 4.59877005  10.62106831 27.27901440
141 1 0.60000000 2.29927005  14.60391915 4.70701440
142 1 0.60000000 2.29927005  14.60391915 12.23101440
143 1 0.60000000 2.29927005  14.60391915 19.75501440
144 1 0.60000000 2.29927005  14.60391915 27.27901440
145 1 0.60000000 -0.00022995  18.58676998 4.70701440
146 1 0.60000000 -0.00022995  18.58676998 12.23101440
147 1 0.60000000 -0.00022995  18.58676998 19.75501440
148 1 0.60000000 -0.00022995  18.58676998 27.27901440
149 1 0.60000000 -2.29972995  22.56962081 4.70701440
150 1 0.60000000 -2.29972995  22.56962081 12.23101440
151 1 0.60000000 -2.29972995  22.56962081 19.75501440
152 1 0.60000000 -2.29972995  22.56962081 27.27901440
153 1 0.60000000 -4.59922995  26.55247164 4.70701440
154 1 0.60000000 -4.59922995  26.55247164 12.23101440
155 1 0.60000000 -4.59922995  26.55247164 19.75501440
156 1 0.60000000 -4.59922995  26.55247164 27.27901440
157 1 0.60000000 -6.89872995  30.53532247 4.70701440
158 1 0.60000000 -6.89872995  30.53532247 12.23101440
159 1 0.60000000 -6.89872995  30.53532247 19.75501440
160 1 0.60000000 -6.89872995  30.53532247 27.27901440
161 1 0.60000000 -9.19822995  34.51817330 4.70701440
162 1 0.60000000 -9.19822995  34.51817330 12.23101440
163 1 0.60000000 -9.19822995  34.51817330 19.75501440
164 1 0.60000000 -9.19822995  34.51817330 27.27901440
165 1 0.60000000 -11.49772995  38.50102414 4.70701440
166 1 0.60000000 -11.49772995  38.50102414 12.23101440
167 1 0.60000000 -11.49772995  38.50102414 19.75501440
168 1 0.60000000 -11.49772995  38.50102414 27.27901440
169 1 0.60000000 -13.79722996  42.48387497 4.70701440
170 1 0.60000000 -13.79722996  42.48387497 12.23101440
171 1 0.60000000 -13.79722996  42.48387497 19.75501440
172 1 0.60000000 -13.79722996  42.48387497 27.27901440
173 1 0.60000000 -16.09672996  46.46672580 4.70701440
174 1 0.60000000 -16.09672996  46.46672580 12.23101440
175 1 0.60000000 -16.09672996  46.46672580 19.75501440
176 1 0.60000000 -16.09672996  46.46672580 27.27901440
177 1 0.60000000 -18.39622996  50.44957663 4.70701440
178 1 0.60000000 -18.39622996  50.44957663 12.23101440
179 1 0.60000000 -18.39622996  50.44957663 19.75501440
180 1 0.60000000 -18.39622996  50.44957663 27.27901440
181 1 0.60000000 -20.69572996  54.43242746 4.70701440
182 1 0.60000000 -20.69572996  54.43242746 12.23101440
183 1 0.60000000 -20.69572996  54.43242746 19.75501440
184 1 0.60000000 -20.69572996  54.43242746 27.27901440
185 1 0.60000000 -22.99522996  58.41527829 4.70701440
186 1 0.60000000 -22.99522996  58.41527829 12.23101440
187 1 0.60000000 -22.99522996  58.41527829 19.75501440
188 1 0.60000000 -22.99522996  58.41527829 27.27901440
189 1 0.60000000 -25.29472996  62.39812913 4.70701440
190 1 0.60000000 -25.29472996  62.39812913 12.23101440
191 1 0.60000000 -25.29472996  62.39812913 19.75501440
192 1 0.60000000 -25.29472996  62.39812913 27.27901440
193 1 0.60000000 13.79677005  2.65536665 4.70701440
194 1 0.60000000 13.79677005  2.65536665 12.23101440
195 1 0.60000000 13.79677005  2.65536665 19.75501440
196 1 0.60000000 13.79677005  2.65536665 27.27901440
197 1 0.60000000 11.49727005  6.63821748 4.70701440
198 1 0.60000000 11.49727005  6.63821748 12.23101440
199 1 0.60000000 11.49727005  6.63821748 19.75501440
200 1 0.60000000 11.49727005  6.63821748 27.27901440
201 1 0.60000000 9.19777005  10.62106831 4.70701440
202 1 0.60000000 9.19777005  10.62106831 12.23101440
203 1 0.60000000 9.19777005  10.62106831 19.75501440
204 1 0.60000000 9.19777005  10.62106831 27.27901440
205 1 0.60000000 6.89827005  14.60391915 4.70701440
206 1 0.60000000 6.89827005  14.60391915 12.23101440
207 1 0.60000000 6.89827005  14.60391915 19.75501440
208 1 0.60000000 6.89827005  14.60391915 27.27901440
209 1 0.60000000 4.59877005  18.58676998 4.70701440
210 1 0.60000000 4.59877005  18.58676998 12.23101440
211 1 0.60000000 4.59877005  18.58676998 19.75501440
212 1 0.60000000 4.59877005  18.58676998 27.27901440
213 1 0.60000000 2.29927005  22.56962081 4.70701440
214 1 0.60000000 2.29927005  22.56962081 12.23101440
215 1 0.60000000 2.29927005  22.56962081 19.75501440
216 1 0.60000000 2.29927005  22.56962081 27.27901440
217 1 0.60000000 -0.00022995  26.55247164 4.70701440
218 1 0.60000000 -0.00022995  26.55247164 12.23101440
219 1 0.60000000 -0.00022995  26.55247164 19.75501440
220 1 0.60000000 -0.00022995  26.55247164 27.27901440
221 1 0.60000000 -2.29972995  30.53532247 4.70701440
222 1 0.60000000 -2.29972995  30.53532247 12.23101440
223 1 0.60000000 -2.29972995  30.53532247 19.75501440
224 1 0.60000000 -2.29972995  30.53532247 27.27901440
225 1 0.60000000 -4.59922995  34.51817330 4.70701440
226 1 0.60000000 -4.59922995  34.51817330 12.23101440
227 1 0.60000000 -4.59922995  34.51817330 19.75501440
228 1 0.60000000 -4.59922995  34.51817330 27.27901440
229 1 0.60000000 -6.89872995  38.50102414 4.70701440
230 1 0.60000000 -6.89872995  38.50102414 12.23101440
231 1 0.60000000 -6.89872995  38.50102414 19.75501440
232 1 0.60000000 -6.89872995  38.50102414 27.27901440
233 1 0.60000000 -9.19822996  42.48387497 4.70701440
234 1 0.60000000 -9.19822996  42.48387497 12.23101440
235 1 0.60000000 -9.19822996  42.48387497 19.75501440
236 1 0.60000000 -9.19822996  42.48387497 27.27901440
237 1 0.60000000 -11.49772996  46.46672580 4.70701440
238 1 0.60000000 -11.49772996  46.46672580 12.23101440
239 1 0.60000000 -11.49772996  46.46672580 19.75501440
240 1 0.60000000 -11.49772996  46.46672580 27.27901440
241 1 0.60000000 -13.79722996  50.44957663 4.70701440
242 1 0.60000000 -13.79722996  50.44957663 12.23101440
243 1 0.60000000 -13.79722996  50.44957663 19.75501440
244 1 0.60000000 -13.79722996  50.44957663 27.27901440
245 1 0.60000000 -16.09672996  54.43242746 4.70701440
246 1 0.60000000 -16.09672996  54.43242746 12.23101440
247 1 0.60000000 -16.09672996  54.43242746 19.75501440
248 1 0.60000000 -16.09672996  54.43242746 27.27901440
249 1 0.60000000 -18.39622996  58.41527829 4.70701440
250 1 0.60000000 -18.39622996  58.41527829 12.23101440
251 1 0.60000000 -18.39622996  58.41527829 19.75501440
252 1 0.60000000 -18.39622996  58.41527829 27.27901440
253 1 0.60000000 -20.69572996  62.39812913 4.70701440
254 1 0.60000000 -20.69572996  62.39812913 12.23101440
255 1 0.60000000 -20.69572996  62.39812913 19.75501440
256 1 0.60000000 -20.69572996  62.39812913 27.27901440
257 1 0.60000000 18.39577005  2.65536665 4.70701440
258 1 0.60000000 18.39577005  2.65536665 12.23101440
259 1 0.60000000 18.39577005  2.65536665 19.75501440
260 1 0.60000000 18.39577005  2.65536665 27.27901440
261 1 0.60000000 16.09627005  6.63821748 4.70701440
262 1 0.60000000 16.09627005  6.63821748 12.23101440
263 1 0.60000000 16.09627005  6.63821748 19.75501440
264 1 0.60000000 16.09627005  6.63821748 27.27901440
265 1 0.60000000 13.79677005  10.62106831 4.70701440
266 1 0.60000000 13.79677005  10.62106831 12.23101440
267 1 0.60000000 13.79677005  10.62106831 19.75501440
268 1 0.60000000 13.79677005  10.62106831 27.27901440
269 1 0.60000000 11.49727005  14.60391915 4.70701440
270 1 0.60000000 11.49727005  14.60391915 12.23101440
271 1 0.60000000 11.49727005  14.60391915 19.75501440
272 1 0.60000000 11.49727005  14.60391915 27.27901440
273 1 0.60000000 9.19777005  18.58676998 4.70701440
274 1 0.60000000 9.19777005  18.58676998 12.23101440
275 1 0.60000000 9.19777005  18.58676998 19.75501440
276 1 0.60000000 9.19777005  18.58676998 27.27901440
277 1 0.60000000 6.89827005  22.56962081 4.70701440
278 1 0.60000000 6.89827005  22.56962081 12.23101440
279 1 0.60000000 6.89827005  22.56962081 19.75501440
280 1 0.60000000 6.89827005  22.56962081 27.27901440
281 1 0.60000000 4.59877005  26.55247164 4.70701440
282 1 0.60000000 4.59877005  26.55247164 12.23101440
283 1 0.60000000 4.59877005  26.55247164 19.75501440
284 1 0.60000000 4.59877005  26.55247164 27.27901440
285 1 0.60000000 2.29927005  30.53532247 4.70701440
286 1 0.60000000 2.29927005  30.53532247 12.23101440
287 1 0.60000000 2.29927005  30.53532247 19.75501440
288 1 0.60000000 2.29927005  30.53532247 27.27901440
289 1 0.60000000 -0.00022995  34.51817330 4.70701440
290 1 0.60000000 -0.00022995  34.51817330 12.23101440
291 1 0.60000000 -0.00022995  34.51817330 19.75501440
292 1 0.60000000 -0.00022995  34.51817330 27.27901440
293 1 0.60000000 -2.29972995  38.50102414 4.70701440
294 1 0.60000000 -2.29972995  38.50102414 12.23101440
295 1 0.60000000 -2.29972995  38.50102414 19.75501440
296 1 0.60000000 -2.29972995  38.50102414 27.27901440
297 1 0.60000000 -4.59922996  42.48387497 4.70701440
298 1 0.60000000 -4.59922996  42.48387497 12.23101440
299 1 0.60000000 -4.59922996  42.48387497 19.75501440
300 1 0.60000000 -4.59922996  42.48387497 27.27901440
301 1 0.60000000 -6.89872996  46.46672580 4.70701440
302 1 0.60000000 -6.89872996  46.46672580 12.23101440
303 1 0.60000000 -6.89872996  46.46672580 19.75501440
304 1 0.60000000 -6.89872996  46.46672580 27.27901440
305 1 0.60000000 -9.19822996  50.44957663 4.70701440
306 1 0.60000000 -9.19822996  50.44957663 12.23101440
307 1 0.60000000 -9.19822996  50.44957663 19.75501440
308 1 0.60000000 -9.19822996  50.44957663 27.27901440
309 1 0.60000000 -11.49772996  54.43242746 4.70701440
310 1 0.60000000 -11.49772996  54.43242746 12.23101440
311 1 0.60000000 -11.49772996  54.43242746 19.75501440
312 1 0.60000000 -11.49772996  54.43242746 27.27901440
313 1 0.60000000 -13.79722996  58.41527829 4.70701440
314 1 0.60000000 -13.79722996  58.41527829 12.23101440
315 1 0.60000000 -13.79722996  58.41527829 19.75501440
316 1 0.60000000 -13.79722996  58.41527829 27.27901440
317 1 0.60000000 -16.09672996  62.39812913 4.70701440
318 1 0.60000000 -16.09672996  62.39812913 12.23101440
319 1 0.60000000 -16.09672996  62.39812913 19.75501440
320 1 0.60000000 -16.09672996  62.39812913 27.27901440
321 1 0.60000000 22.99477005  2.65536665 4.70701440
322 1 0.60000000 22.99477005  2.65536665 12.23101440
323 1 0.60000000 22.99477005  2.65536665 19.75501440
324 1 0.60000000 22.99477005  2.65536665 27.27901440
325 1 0.60000000 20.69527005  6.63821748 4.70701440
326 1 0.60000000 20.69527005  6.63821748 12.23101440
327 1 0.60000000 20.69527005  6.63821748 19.75501440
328 1 0.60000000 20.69527005  6.63821748 27.27901440
329 1 0.60000000 18.39577005  10.62106831 4.70701440
330 1 0.60000000 18.39577005  10.62106831 12.23101440
331 1 0.60000000 18.39577005  10.62106831 19.75501440
332 1 0.60000000 18.39577005  10.62106831 27.27901440
333 1 0.60000000 16.09627005  14.60391915 4.70701440
334 1 0.60000000 16.09627005  14.60391915 12.23101440
335 1 0.60000000 16.09627005  14.60391915 19.75501440
336 1 0.60000000 16.09627005  14.60391915 27.27901440
337 1 0.60000000 13.79677005  18.58676998 4.70701440
338 1 0.60000000 13.79677005  18.58676998 12.23101440
339 1 0.60000000 13.79677005  18.58676998 19.75501440
340 1 0.60000000 13.79677005  18.58676998 27.27901440
341 1 0.60000000 11.49727005  22.56962081 4.70701440
342 1 0.60000000 11.49727005  22.56962081 12.23101440
343 1 0.60000000 11.49727005  22.56962081 19.75501440
344 1 0.60000000 11.49727005  22.56962081 27.27901440
345 1 0.60000000 9.19777005  26.55247164 4.70701440
346 1 0.60000000 9.19777005  26.55247164 12.23101440
347 1 0.60000000 9.19777005  26.55247164 19.75501440
348 1 0.60000000 9.19777005  26.55247164 27.27901440
349 1 0.60000000 6.89827005  30.53532247 4.70701440
350 1 0.60000000 6.89827005  30.53532247 12.23101440
351 1 0.60000000 6.89827005  30.53532247 19.75501440
352 1 0.60000000 6.89827005  30.53532247 27.27901440
353 1 0.60000000 4.59877005  34.51817330 4.70701440
354 1 0.60000000 4.59877005  34.51817330 12.23101440
355 1 0.60000000 4.59877005  34.51817330 19.75501440
356 1 0.60000000 4.59877005  34.51817330 27.27901440
357 1 0.60000000 2.29927005  38.50102414 4.70701440
358 1 0.60000000 2.29927005  38.50102414 12.23101440
359 1 0.60000000 2.29927005  38.50102414 19.75501440
360 1 0.60000000 2.29927005  38.50102414 27.27901440
361 1 0.60000000 -0.00022996  42.48387497 4.70701440
362 1 0.60000000 -0.00022996  42.48387497 12.23101440
363 1 0.60000000 -0.00022996  42.48387497 19.75501440
364 1 0.60000000 -0.00022996  42.48387497 27.27901440
365 1 0.60000000 -2.29972996  46.46672580 4.70701440
366 1 0.60000000 -2.29972996  46.46672580 12.23101440
367 1 0.60000000 -2.29972996  46.46672580 19.75501440
368 1 0.60000000 -2.29972996  46.46672580 27.27901440
369 1 0.60000000 -4.59922996  50.44957663 4.70701440
370 1 0.60000000 -4.59922996  50.44957663 12.23101440
371 1 0.60000000 -4.59922996  50.44957663 19.75501440
372 1 0.60000000 -4.59922996  50.44957663 27.27901440
373 1 0.60000000 -6.89872996  54.43242746 4.70701440
374 1 0.60000000 -6.89872996  54.43242746 12.23101440
375 1 0.60000000 -6.89872996  54.43242746 19.75501440
376 1 0.60000000 -6.89872996  54.43242746 27.27901440
377 1 0.60000000 -9.19822996  58.41527829 4.70701440
378 1 0.60000000 -9.19822996  58.41527829 12.23101440
379 1 0.60000000 -9.19822996  58.41527829 19.75501440
380 1 0.60000000 -9.19822996  58.41527829 27.27901440
381 1 0.60000000 -11.49772996  62.39812913 4.70701440
382 1 0.60000000 -11.49772996  62.39812913 12.23101440
383 1 0.60000000 -11.49772996  62.39812913 19.75501440
384 1 0.60000000 -11.49772996  62.39812913 27.27901440
385 1 0.60000000 27.59377005  2.65536665 4.70701440
386 1 0.60000000 27.59377005  2.65536665 12.23101440
387 1 0.60000000 27.59377005  2.65536665 19.75501440
388 1 0.60000000 27.59377005  2.65536665 27.27901440
389 1 0.60000000 25.29427005  6.63821748 4.70701440
390 1 0.60000000 25.29427005  6.63821748 12.23101440
391 1 0.60000000 25.29427005  6.63821748 19.75501440
392 1 0.60000000 25.29427005  6.63821748 27.27901440
393 1 0.60000000 22.99477005  10.62106831 4.70701440
394 1 0.60000000 22.99477005  10.62106831 12.23101440
395 1 0.60000000 22.99477005  10.62106831 19.75501440
396 1 0.60000000 22.99477005  10.62106831 27.27901440
397 1 0.60000000 20.69527005  14.60391915 4.70701440
398 1 0.60000000 20.69527005  14.60391915 12.23101440
399 1 0.60000000 20.69527005  14.60391915 19.75501440
400 1 0.60000000 20.69527005  14.60391915 27.27901440
401 1 0.60000000 18.39577005  18.58676998 4.70701440
402 1 0.60000000 18.39577005  18.58676998 12.23101440
403 1 0.60000000 18.39577005  18.58676998 19.75501440
404 1 0.60000000 18.39577005  18.58676998 27.27901440
405 1 0.60000000 16.09627005  22.56962081 4.70701440
406 1 0.60000000 16.09627005  22.56962081 12.23101440
407 1 0.60000000 16.09627005  22.56962081 19.75501440
408 1 0.60000000 16.09627005  22.56962081 27.27901440
409 1 0.60000000 13.79677005  26.55247164 4.70701440
410 1 0.60000000 13.79677005  26.55247164 12.23101440
411 1 0.60000000 13.79677005  26.55247164 19.75501440
412 1 0.60000000 13.79677005  26.55247164 27.27901440
413 1 0.60000000 11.49727005  30.53532247 4.70701440
414 1 0.60000000 11.49727005  30.53532247 12.23101440
415 1 0.60000000 11.49727005  30.53532247 19.75501440
416 1 0.60000000 11.49727005  30.53532247 27.27901440
417 1 0.60000000 9.19777005  34.51817330 4.70701440
418 1 0.60000000 9.19777005  34.51817330 12.23101440
419 1 0.60000000 9.19777005  34.51817330 19.75501440
420 1 0.60000000 9.19777005  34.51817330 27.27901440
421 1 0.60000000 6.89827005  38.50102414 4.70701440
422 1 0.60000000 6.89827005  38.50102414 12.23101440
423 1 0.60000000 6.89827005  38.50102414 19.75501440
424 1 0.60000000 6.89827005  38.50102414 27.27901440
425 1 0.60000000 4.59877005  42.48387497 4.70701440
426 1 0.60000000 4.59877005  42.48387497 12.23101440
427 1 0.60000000 4.59877005  42.48387497 19.75501440
428 1 0.60000000 4.59877005  42.48387497 27.27901440
429 1 0.60000000 2.29927005  46.46672580 4.70701440
430 1 0.60000000 2.29927005  46.46672580 12.23101440
431 1 0.60000000 2.29927005  46.46672580 19.75501440
432 1 0.60000000 2.29927005  46.46672580 27.27901440
433 1 0.60000000 -0.00022996  50.44957663 4.70701440
434 1 0.60000000 -0.00022996  50.44957663 12.23101440
435 1 0.60000000 -0.00022996  50.44957663 19.75501440
436 1 0.60000000 -0.00022996  50.44957663 27.27901440
437 1 0.60000000 -2.29972996  54.43242746 4.70701440
438 1 0.60000000 -2.29972996  54.43242746 12.23101440
439 1 0.60000000 -2.29972996  54.43242746 19.75501440
440 1 0.60000000 -2.29972996  54.43242746 27.27901440
441 1 0.60000000 -4.59922996  58.41527829 4.70701440
442 1 0.60000000 -4.59922996  58.41527829 12.23101440
443 1 0.60000000 -4.59922996  58.41527829 19.75501440
444 1 0.60000000 -4.59922996  58.41527829 27.27901440
445 1 0.60000000 -6.89872996  62.39812913 4.70701440
446 1 0.60000000 -6.89872996  62.39812913 12.23101440
447 1 0.60000000 -6.89872996  62.39812913 19.75501440
448 1 0.60000000 -6.89872996  62.39812913 27.27901440
449 1 0.60000000 32.19277005  2.65536665 4.70701440
450 1 0.60000000 32.19277005  2.65536665 12.23101440
451 1 0.60000000 32.19277005  2.65536665 19.75501440
452 1 0.60000000 32.19277005  2.65536665 27.27901440
453 1 0.60000000 29.89327005  6.63821748 4.70701440
454 1 0.60000000 29.89327005  6.63821748 12.23101440
455 1 0.60000000 29.89327005  6.63821748 19.75501440
456 1 0.60000000 29.89327005  6.63821748 27.27901440
457 1 0.60000000 27.59377005  10.62106831 4.70701440
458 1 0.60000000 27.59377005  10.62106831 12.23101440
459 1 0.60000000 27.59377005  10.62106831 19.75501440
460 1 0.60000000 27.59377005  10.62106831 27.27901440
461 1 0.60000000 25.29427005  14.60391915 4.70701440
462 1 0.60000000 25.29427005  14.60391915 12.23101440
463 1 0.60000000 25.29427005  14.60391915 19.75501440
464 1 0.60000000 25.29427005  14.60391915 27.27901440
465 1 0.60000000 22.99477005  18.58676998 4.70701440
466 1 0.60000000 22.99477005  18.58676998 12.23101440
467 1 0.60000000 22.99477005  18.58676998 19.75501440
468 1 0.60000000 22.99477005  18.58676998 27.27901440
469 1 0.60000000 20.69527005  22.56962081 4.70701440
470 1 0.60000000 20.69527005  22.56962081 12.23101440
471 1 0.60000000 20.69527005  22.56962081 19.75501440
472 1 0.60000000 20.69527005  22.56962081 27.27901440
473 1 0.60000000 18.39577005  26.55247164 4.70701440
474 1 0.60000000 18.39577005  26.55247164 12.23101440
475 1 0.60000000 18.39577005  26.55247164 19.75501440
476 1 0.60000000 18.39577005  26.55247164 27.27901440
477 1 0.60000000 16.09627005  30.53532247 4.70701440
478 1 0.60000000 16.09627005  30.53532247 12.23101440
479 1 0.60000000 16.09627005  30.53532247 19.75501440
480 1 0.60000000 16.09627005  30.53532247 27.27901440
481 1 0.60000000 13.79677005  34.51817330 4.70701440
482 1 0.60000000 13.79677005  34.51817330 12.23101440
483 1 0.60000000 13.79677005  34.51817330 19.75501440
484 1 0.60000000 13.79677005  34.51817330 27.27901440
485 1 0.60000000 11.49727005  38.50102414 4.70701440
486 1 0.60000000 11.49727005  38.50102414 12.23101440
487 1 0.60000000 11.49727005  38.50102414 19.75501440
488 1 0.60000000 11.49727005  38.50102414 27.27901440
489 1 0.60000000 9.19777005  42.48387497 4.70701440
490 1 0.60000000 9.19777005  42.48387497 12.23101440
491 1 0.60000000 9.19777005  42.48387497 19.75501440
492 1 0.60000000 9.19777005  42.48387497 27.27901440
493 1 0.60000000 6.89827005  46.46672580 4.70701440
494 1 0.60000000 6.89827005  46.46672580 12.23101440
495 1 0.60000000 6.89827005  46.46672580 19.75501440
496 1 0.60000000 6.89827005  46.46672580 27.27901440
497 1 0.60000000 4.59877004  50.44957663 4.70701440
498 1 0.60000000 4.59877004  50.44957663 12.23101440
499 1 0.60000000 4.59877004  50.44957663 19.75501440
500 1 0.60000000 4.59877004  50.44957663 27.27901440
501 1 0.60000000 2.29927004  54.43242746 4.70701440
502 1 0.60000000 2.29927004  54.43242746 12.23101440
503 1 0.60000000 2.29927004  54.43242746 19.75501440
504 1 0.60000000 2.29927004  54.43242746 27.27901440
505 1 0.60000000 -0.00022996  58.41527829 4.70701440
506 1 0.60000000 -0.00022996  58.41527829 12.23101440
507 1 0.60000000 -0.00022996  58.41527829 19.75501440
508 1 0.60000000 -0.00022996  58.41527829 27.27901440
509 1 0.60000000 -2.29972996  62.39812913 4.70701440
510 1 0.60000000 -2.29972996  62.39812913 12.23101440
511 1 0.60000000 -2.29972996  62.39812913 19.75501440
512 1 0.60000000 -2.29972996  62.39812913 27.27901440
513 1 0.60000000 2.29972995  1.32748418 0.94501440
514 1 0.60000000 2.29972995  1.32748418 8.46901440
515 1 0.60000000 2.29972995  1.32748418 15.99301440
516 1 0.60000000 2.29972995  1.32748418 23.51701440
517 1 0.60000000 0.00022995  5.31033501 0.94501440
518 1 0.60000000 0.00022995  5.31033501 8.46901440
519 1 0.60000000 0.00022995  5.31033501 15.99301440
520 1 0.60000000 0.00022995  5.31033501 23.51701440
521 1 0.60000000 -2.29927005  9.29318585 0.94501440
522 1 0.60000000 -2.29927005  9.29318585 8.46901440
523 1 0.60000000 -2.29927005  9.29318585 15.99301440
524 1 0.60000000 -2.29927005  9.29318585 23.51701440
525 1 0.60000000 -4.59877005  13.27603668 0.94501440
526 1 0.60000000 -4.59877005  13.27603668 8.46901440
527 1 0.60000000 -4.59877005  13.27603668 15.99301440
528 1 0.60000000 -4.59877005  13.27603668 23.51701440
529 1 0.60000000 -6.89827005  17.25888751 0.94501440
530 1 0.60000000 -6.89827005  17.25888751 8.46901440
531 1 0.60000000 -6.89827005  17.25888751 15.99301440
532 1 0.60000000 -6.89827005  17.25888751 23.51701440
533 1 0.60000000 -9.19777005  21.24173834 0.94501440
534 1 0.60000000 -9.19777005  21.24173834 8.46901440
535 1 0.60000000 -9.19777005  21.24173834 15.99301440
536 1 0.60000000 -9.19777005  21.24173834 23.51701440
537 1 0.60000000 -11.49727005  25.22458917 0.94501440
538 1 0.60000000 -11.49727005  25.22458917 8.46901440
539 1 0.60000000 -11.49727005  25.22458917 15.99301440
540 1 0.60000000 -11.49727005  25.22458917 23.51701440
541 1 0.60000000 -13.79677005  29.20744000 0.94501440
542 1 0.60000000 -13.79677005  29.20744000 8.46901440
543 1 0.60000000 -13.79677005  29.20744000 15.99301440
544 1 0.60000000 -13.79677005  29.20744000 23.51701440
545 1 0.60000000 -16.09627005  33.19029084 0.94501440
546 1 0.60000000 -16.09627005  33.19029084 8.46901440