LAMMPS data file via write_data, version 2 Aug 2023, timestep = 10, units = real

14912 atoms
5 atom types
8112 bonds
2 bond types
2704 angles
1 angle types

0 36.792 xlo xhi
0 63.72561331 ylo yhi
0 120 zlo zhi
0 0 0 xy xz yz

Masses

1 107.868
2 126.904
3 15.9994
4 1.008
5 1e-100

Atoms # full

1537 1538 1 0.6 0.00022994999999999998 2.6553666499999977 4.7070144 0 0 0
1601 1602 1 0.6 4.59922995 2.6553666499999977 4.7070144 0 0 0
1605 1606 1 0.6 2.29972995 6.638217479999995 4.7070144 0 0 0
1669 1670 1 0.6 6.89872995 6.638217479999995 4.7070144 0 0 0
2561 2562 1 0.6 2.2995 1.32788247 0.9450143999999999 0 0 0
2565 2566 1 0.6 0 5.310733299999995 0.9450143999999999 0 0 0
2625 2626 1 0.6 6.8985 1.32788247 0.9450143999999999 0 0 0
2629 2630 1 0.6 4.599 5.310733299999995 0.9450143999999999 0 0 0
3516 3517 2 -0.6 4.599 5.310733299999995 3.7620000000000005 0 0 0
3520 3521 2 -0.6 6.8985 1.32788247 3.7620000000000005 0 0 0
3580 3581 2 -0.6 0 5.310733299999995 3.7620000000000005 0 0 0
3584 3585 2 -0.6 2.2995 1.32788247 3.7620000000000005 0 0 0
3964 3965 2 -0.6 6.89872995 6.638217479999995 0 0 0 0
4028 4029 2 -0.6 2.29972995 6.638217479999995 0 0 0 0
4032 4033 2 -0.6 4.59922995 2.6553666499999977 0 0 0 0
4096 4097 2 -0.6 0.00022994999999999998 2.6553666499999977 0 0 0 0
1665 1666 1 0.6 9.19822995 2.6553666499999977 4.7070144 0 0 0
1729 1730 1 0.6 13.79722995 2.6553666499999977 4.7070144 0 0 0
1733 1734 1 0.6 11.49772995 6.638217479999995 4.7070144 0 0 0
2689 2690 1 0.6 11.4975 1.32788247 0.9450143999999999 0 0 0
2693 2694 1 0.6 9.198 5.310733299999995 0.9450143999999999 0 0 0
2757 2758 1 0.6 13.797 5.310733299999995 0.9450143999999999 0 0 0
3388 3389 2 -0.6 13.797 5.310733299999995 3.7620000000000005 0 0 0
3452 3453 2 -0.6 9.198 5.310733299999995 3.7620000000000005 0 0 0
3456 3457 2 -0.6 11.4975 1.32788247 3.7620000000000005 0 0 0
3900 3901 2 -0.6 11.49772995 6.638217479999995 0 0 0 0
3904 3905 2 -0.6 13.79722995 2.6553666499999977 0 0 0 0
3968 3969 2 -0.6 9.19822995 2.6553666499999977 0 0 0 0
1793 1794 1 0.6 18.39622995 2.6553666499999977 4.7070144 0 0 0
1797 1798 1 0.6 16.09672995 6.638217479999995 4.7070144 0 0 0
1861 1862 1 0.6 20.69572995 6.638217479999995 4.7070144 0 0 0
2753 2754 1 0.6 16.0965 1.32788247 0.9450143999999999 0 0 0
2817 2818 1 0.6 20.695500000000003 1.32788247 0.9450143999999999 0 0 0
2821 2822 1 0.6 18.396 5.310733299999995 0.9450143999999999 0 0 0
3324 3325 2 -0.6 18.396 5.310733299999995 3.7620000000000005 0 0 0
3328 3329 2 -0.6 20.695500000000003 1.32788247 3.7620000000000005 0 0 0
3392 3393 2 -0.6 16.0965 1.32788247 3.7620000000000005 0 0 0
3772 3773 2 -0.6 20.69572995 6.638217479999995 0 0 0 0
3836 3837 2 -0.6 16.09672995 6.638217479999995 0 0 0 0
3840 3841 2 -0.6 18.39622995 2.6553666499999977 0 0 0 0
1857 1858 1 0.6 22.99522995 2.6553666499999977 4.7070144 0 0 0
1921 1922 1 0.6 27.59422995 2.6553666499999977 4.7070144 0 0 0
1925 1926 1 0.6 25.29472995 6.638217479999995 4.7070144 0 0 0
2881 2882 1 0.6 25.294499999999996 1.32788247 0.9450143999999999 0 0 0
2885 2886 1 0.6 22.995 5.310733299999995 0.9450143999999999 0 0 0
2949 2950 1 0.6 27.594 5.310733299999995 0.9450143999999999 0 0 0
3196 3197 2 -0.6 27.594 5.310733299999995 3.7620000000000005 0 0 0
3260 3261 2 -0.6 22.995 5.310733299999995 3.7620000000000005 0 0 0
3264 3265 2 -0.6 25.294499999999996 1.32788247 3.7620000000000005 0 0 0
3708 3709 2 -0.6 25.29472995 6.638217479999995 0 0 0 0
3712 3713 2 -0.6 27.59422995 2.6553666499999977 0 0 0 0
3776 3777 2 -0.6 22.99522995 2.6553666499999977 0 0 0 0
1541 1542 1 0.6 34.49272995 6.638217479999995 4.7070144 0 0 0
1985 1986 1 0.6 32.19322995 2.6553666499999977 4.7070144 0 0 0
1989 1990 1 0.6 29.89372995 6.638217479999995 4.7070144 0 0 0
2945 2946 1 0.6 29.893499999999996 1.32788247 0.9450143999999999 0 0 0
3009 3010 1 0.6 34.4925 1.32788247 0.9450143999999999 0 0 0
3013 3014 1 0.6 32.193 5.310733299999995 0.9450143999999999 0 0 0
3132 3133 2 -0.6 32.193 5.310733299999995 3.7620000000000005 0 0 0
3136 3137 2 -0.6 34.4925 1.32788247 3.7620000000000005 0 0 0
3200 3201 2 -0.6 29.893499999999996 1.32788247 3.7620000000000005 0 0 0
3644 3645 2 -0.6 29.89372995 6.638217479999995 0 0 0 0
3648 3649 2 -0.6 32.19322995 2.6553666499999977 0 0 0 0
4092 4093 2 -0.6 34.49272995 6.638217479999995 0 0 0 0
1609 1610 1 0.6 0.00022994999999999998 10.62106831 4.7070144 0 0 0
1673 1674 1 0.6 4.59922995 10.62106831 4.7070144 0 0 0
1677 1678 1 0.6 2.29972995 14.60391915 4.7070144 0 0 0
1741 1742 1 0.6 6.89872995 14.60391915 4.7070144 0 0 0
2633 2634 1 0.6 2.2995 9.29358413 0.9450143999999999 0 0 0
2637 2638 1 0.6 0 13.27643495999999 0.9450143999999999 0 0 0
2697 2698 1 0.6 6.8985 9.29358413 0.9450143999999999 0 0 0
2701 2702 1 0.6 4.599 13.27643495999999 0.9450143999999999 0 0 0
3444 3445 2 -0.6 4.599 13.27643495999999 3.7620000000000005 0 0 0
3448 3449 2 -0.6 6.8985 9.29358413 3.7620000000000005 0 0 0
3508 3509 2 -0.6 0 13.27643495999999 3.7620000000000005 0 0 0
3512 3513 2 -0.6 2.2995 9.29358413 3.7620000000000005 0 0 0
3892 3893 2 -0.6 6.89872995 14.60391915 0 0 0 0
3956 3957 2 -0.6 2.29972995 14.60391915 0 0 0 0
3960 3961 2 -0.6 4.59922995 10.62106831 0 0 0 0
4024 4025 2 -0.6 0.00022994999999999998 10.62106831 0 0 0 0
1737 1738 1 0.6 9.19822995 10.62106831 4.7070144 0 0 0
1801 1802 1 0.6 13.79722995 10.62106831 4.7070144 0 0 0
1805 1806 1 0.6 11.49772995 14.60391915 4.7070144 0 0 0
2761 2762 1 0.6 11.4975 9.29358413 0.9450143999999999 0 0 0
2765 2766 1 0.6 9.198 13.27643495999999 0.9450143999999999 0 0 0
2829 2830 1 0.6 13.797 13.27643495999999 0.9450143999999999 0 0 0
3316 3317 2 -0.6 13.797 13.27643495999999 3.7620000000000005 0 0 0
3380 3381 2 -0.6 9.198 13.27643495999999 3.7620000000000005 0 0 0
3384 3385 2 -0.6 11.4975 9.29358413 3.7620000000000005 0 0 0
3828 3829 2 -0.6 11.49772995 14.60391915 0 0 0 0
3832 3833 2 -0.6 13.79722995 10.62106831 0 0 0 0
3896 3897 2 -0.6 9.19822995 10.62106831 0 0 0 0
1865 1866 1 0.6 18.39622995 10.62106831 4.7070144 0 0 0
1869 1870 1 0.6 16.09672995 14.60391915 4.7070144 0 0 0
1933 1934 1 0.6 20.69572995 14.60391915 4.7070144 0 0 0
2825 2826 1 0.6 16.0965 9.29358413 0.9450143999999999 0 0 0
2889 2890 1 0.6 20.695500000000003 9.29358413 0.9450143999999999 0 0 0
2893 2894 1 0.6 18.396 13.27643495999999 0.9450143999999999 0 0 0
3252 3253 2 -0.6 18.396 13.27643495999999 3.7620000000000005 0 0 0
3256 3257 2 -0.6 20.695500000000003 9.29358413 3.7620000000000005 0 0 0
3320 3321 2 -0.6 16.0965 9.29358413 3.7620000000000005 0 0 0
3700 3701 2 -0.6 20.69572995 14.60391915 0 0 0 0
3764 3765 2 -0.6 16.09672995 14.60391915 0 0 0 0
3768 3769 2 -0.6 18.39622995 10.62106831 0 0 0 0
1929 1930 1 0.6 22.99522995 10.62106831 4.7070144 0 0 0
1993 1994 1 0.6 27.59422995 10.62106831 4.7070144 0 0 0
1997 1998 1 0.6 25.29472995 14.60391915 4.7070144 0 0 0
2953 2954 1 0.6 25.294499999999996 9.29358413 0.9450143999999999 0 0 0
2957 2958 1 0.6 22.995 13.27643495999999 0.9450143999999999 0 0 0
3021 3022 1 0.6 27.594 13.27643495999999 0.9450143999999999 0 0 0
3124 3125 2 -0.6 27.594 13.27643495999999 3.7620000000000005 0 0 0
3188 3189 2 -0.6 22.995 13.27643495999999 3.7620000000000005 0 0 0
3192 3193 2 -0.6 25.294499999999996 9.29358413 3.7620000000000005 0 0 0
3636 3637 2 -0.6 25.29472995 14.60391915 0 0 0 0
3640 3641 2 -0.6 27.59422995 10.62106831 0 0 0 0
3704 3705 2 -0.6 22.99522995 10.62106831 0 0 0 0
1545 1546 1 0.6 32.19322995 10.62106831 4.7070144 0 0 0
1549 1550 1 0.6 29.89372995 14.60391915 4.7070144 0 0 0
1613 1614 1 0.6 34.49272995 14.60391915 4.7070144 0 0 0
2569 2570 1 0.6 34.4925 9.29358413 0.9450143999999999 0 0 0
2573 2574 1 0.6 32.193 13.27643495999999 0.9450143999999999 0 0 0
3017 3018 1 0.6 29.893499999999996 9.29358413 0.9450143999999999 0 0 0
3128 3129 2 -0.6 29.893499999999996 9.29358413 3.7620000000000005 0 0 0
3572 3573 2 -0.6 32.193 13.27643495999999 3.7620000000000005 0 0 0
3576 3577 2 -0.6 34.4925 9.29358413 3.7620000000000005 0 0 0
4020 4021 2 -0.6 34.49272995 14.60391915 0 0 0 0
4084 4085 2 -0.6 29.89372995 14.60391915 0 0 0 0
4088 4089 2 -0.6 32.19322995 10.62106831 0 0 0 0
1681 1682 1 0.6 0.00022994999999999998 18.58676998 4.7070144 0 0 0
1745 1746 1 0.6 4.59922995 18.58676998 4.7070144 0 0 0
1749 1750 1 0.6 2.29972995 22.56962081 4.7070144 0 0 0
1813 1814 1 0.6 6.89872995 22.56962081 4.7070144 0 0 0
2705 2706 1 0.6 2.2995 17.25928579 0.9450143999999999 0 0 0
2709 2710 1 0.6 0 21.242136629999983 0.9450143999999999 0 0 0
2769 2770 1 0.6 6.8985 17.25928579 0.9450143999999999 0 0 0
2773 2774 1 0.6 4.599 21.242136629999983 0.9450143999999999 0 0 0
3372 3373 2 -0.6 4.599 21.242136629999983 3.7620000000000005 0 0 0
3376 3377 2 -0.6 6.8985 17.25928579 3.7620000000000005 0 0 0
3436 3437 2 -0.6 0 21.242136629999983 3.7620000000000005 0 0 0
3440 3441 2 -0.6 2.2995 17.25928579 3.7620000000000005 0 0 0
3820 3821 2 -0.6 6.89872995 22.56962081 0 0 0 0
3884 3885 2 -0.6 2.29972995 22.56962081 0 0 0 0
3888 3889 2 -0.6 4.59922995 18.58676998 0 0 0 0
3952 3953 2 -0.6 0.00022994999999999998 18.58676998 0 0 0 0
1809 1810 1 0.6 9.19822995 18.58676998 4.7070144 0 0 0
1873 1874 1 0.6 13.79722995 18.58676998 4.7070144 0 0 0
1877 1878 1 0.6 11.49772995 22.56962081 4.7070144 0 0 0
2833 2834 1 0.6 11.4975 17.25928579 0.9450143999999999 0 0 0
2837 2838 1 0.6 9.198 21.242136629999983 0.9450143999999999 0 0 0
2901 2902 1 0.6 13.797 21.242136629999983 0.9450143999999999 0 0 0
3244 3245 2 -0.6 13.797 21.242136629999983 3.7620000000000005 0 0 0
3308 3309 2 -0.6 9.198 21.242136629999983 3.7620000000000005 0 0 0
3312 3313 2 -0.6 11.4975 17.25928579 3.7620000000000005 0 0 0
3756 3757 2 -0.6 11.49772995 22.56962081 0 0 0 0
3760 3761 2 -0.6 13.79722995 18.58676998 0 0 0 0
3824 3825 2 -0.6 9.19822995 18.58676998 0 0 0 0
1937 1938 1 0.6 18.39622995 18.58676998 4.7070144 0 0 0
1941 1942 1 0.6 16.09672995 22.56962081 4.7070144 0 0 0
2005 2006 1 0.6 20.69572995 22.56962081 4.7070144 0 0 0
2897 2898 1 0.6 16.0965 17.25928579 0.9450143999999999 0 0 0
2961 2962 1 0.6 20.695500000000003 17.25928579 0.9450143999999999 0 0 0
2965 2966 1 0.6 18.396 21.242136629999983 0.9450143999999999 0 0 0
3180 3181 2 -0.6 18.396 21.242136629999983 3.7620000000000005 0 0 0
3184 3185 2 -0.6 20.695500000000003 17.25928579 3.7620000000000005 0 0 0
3248 3249 2 -0.6 16.0965 17.25928579 3.7620000000000005 0 0 0
3628 3629 2 -0.6 20.69572995 22.56962081 0 0 0 0
3692 3693 2 -0.6 16.09672995 22.56962081 0 0 0 0
3696 3697 2 -0.6 18.39622995 18.58676998 0 0 0 0
1553 1554 1 0.6 27.59422995 18.58676998 4.7070144 0 0 0
1557 1558 1 0.6 25.29472995 22.56962081 4.7070144 0 0 0
2001 2002 1 0.6 22.99522995 18.58676998 4.7070144 0 0 0
2581 2582 1 0.6 27.594 21.242136629999983 0.9450143999999999 0 0 0
3025 3026 1 0.6 25.294499999999996 17.25928579 0.9450143999999999 0 0 0
3029 3030 1 0.6 22.995 21.242136629999983 0.9450143999999999 0 0 0
3116 3117 2 -0.6 22.995 21.242136629999983 3.7620000000000005 0 0 0
3120 3121 2 -0.6 25.294499999999996 17.25928579 3.7620000000000005 0 0 0
3564 3565 2 -0.6 27.594 21.242136629999983 3.7620000000000005 0 0 0
3632 3633 2 -0.6 22.99522995 18.58676998 0 0 0 0
4076 4077 2 -0.6 25.29472995 22.56962081 0 0 0 0
4080 4081 2 -0.6 27.59422995 18.58676998 0 0 0 0
1617 1618 1 0.6 32.19322995 18.58676998 4.7070144 0 0 0
1621 1622 1 0.6 29.89372995 22.56962081 4.7070144 0 0 0
1685 1686 1 0.6 34.49272995 22.56962081 4.7070144 0 0 0
2577 2578 1 0.6 29.893499999999996 17.25928579 0.9450143999999999 0 0 0
2641 2642 1 0.6 34.4925 17.25928579 0.9450143999999999 0 0 0
2645 2646 1 0.6 32.193 21.242136629999983 0.9450143999999999 0 0 0
3500 3501 2 -0.6 32.193 21.242136629999983 3.7620000000000005 0 0 0
3504 3505 2 -0.6 34.4925 17.25928579 3.7620000000000005 0 0 0
3568 3569 2 -0.6 29.893499999999996 17.25928579 3.7620000000000005 0 0 0
3948 3949 2 -0.6 34.49272995 22.56962081 0 0 0 0
4012 4013 2 -0.6 29.89372995 22.56962081 0 0 0 0
4016 4017 2 -0.6 32.19322995 18.58676998 0 0 0 0
1753 1754 1 0.6 0.00022994999999999998 26.55247164 4.7070144 0 0 0
1817 1818 1 0.6 4.59922995 26.55247164 4.7070144 0 0 0
1821 1822 1 0.6 2.29972995 30.53532247 4.7070144 0 0 0
1885 1886 1 0.6 6.89872995 30.53532247 4.7070144 0 0 0
2777 2778 1 0.6 2.2995 25.224987459999983 0.9450143999999999 0 0 0
2781 2782 1 0.6 0 29.207838289999984 0.9450143999999999 0 0 0
2841 2842 1 0.6 6.8985 25.224987459999983 0.9450143999999999 0 0 0
2845 2846 1 0.6 4.599 29.207838289999984 0.9450143999999999 0 0 0
3300 3301 2 -0.6 4.599 29.207838289999984 3.7620000000000005 0 0 0
3304 3305 2 -0.6 6.8985 25.224987459999983 3.7620000000000005 0 0 0
3364 3365 2 -0.6 0 29.207838289999984 3.7620000000000005 0 0 0
3368 3369 2 -0.6 2.2995 25.224987459999983 3.7620000000000005 0 0 0
3748 3749 2 -0.6 6.89872995 30.53532247 0 0 0 0
3812 3813 2 -0.6 2.29972995 30.53532247 0 0 0 0
3816 3817 2 -0.6 4.59922995 26.55247164 0 0 0 0
3880 3881 2 -0.6 0.00022994999999999998 26.55247164 0 0 0 0
1881 1882 1 0.6 9.19822995 26.55247164 4.7070144 0 0 0
1945 1946 1 0.6 13.79722995 26.55247164 4.7070144 0 0 0
1949 1950 1 0.6 11.49772995 30.53532247 4.7070144 0 0 0
2905 2906 1 0.6 11.4975 25.224987459999983 0.9450143999999999 0 0 0
2909 2910 1 0.6 9.198 29.207838289999984 0.9450143999999999 0 0 0
2973 2974 1 0.6 13.797 29.207838289999984 0.9450143999999999 0 0 0
3172 3173 2 -0.6 13.797 29.207838289999984 3.7620000000000005 0 0 0
3236 3237 2 -0.6 9.198 29.207838289999984 3.7620000000000005 0 0 0
3240 3241 2 -0.6 11.4975 25.224987459999983 3.7620000000000005 0 0 0
3684 3685 2 -0.6 11.49772995 30.53532247 0 0 0 0
3688 3689 2 -0.6 13.79722995 26.55247164 0 0 0 0
3752 3753 2 -0.6 9.19822995 26.55247164 0 0 0 0
1565 1566 1 0.6 20.69572995 30.53532247 4.7070144 0 0 0
2009 2010 1 0.6 18.39622995 26.55247164 4.7070144 0 0 0
2013 2014 1 0.6 16.09672995 30.53532247 4.7070144 0 0 0
2969 2970 1 0.6 16.0965 25.224987459999983 0.9450143999999999 0 0 0
3033 3034 1 0.6 20.695500000000003 25.224987459999983 0.9450143999999999 0 0 0
3037 3038 1 0.6 18.396 29.207838289999984 0.9450143999999999 0 0 0
3108 3109 2 -0.6 18.396 29.207838289999984 3.7620000000000005 0 0 0
3112 3113 2 -0.6 20.695500000000003 25.224987459999983 3.7620000000000005 0 0 0
3176 3177 2 -0.6 16.0965 25.224987459999983 3.7620000000000005 0 0 0
3620 3621 2 -0.6 16.09672995 30.53532247 0 0 0 0
3624 3625 2 -0.6 18.39622995 26.55247164 0 0 0 0
4068 4069 2 -0.6 20.69572995 30.53532247 0 0 0 0
1561 1562 1 0.6 22.99522995 26.55247164 4.7070144 0 0 0
1625 1626 1 0.6 27.59422995 26.55247164 4.7070144 0 0 0
1629 1630 1 0.6 25.29472995 30.53532247 4.7070144 0 0 0
2585 2586 1 0.6 25.294499999999996 25.224987459999983 0.9450143999999999 0 0 0
2589 2590 1 0.6 22.995 29.207838289999984 0.9450143999999999 0 0 0
2653 2654 1 0.6 27.594 29.207838289999984 0.9450143999999999 0 0 0
3492 3493 2 -0.6 27.594 29.207838289999984 3.7620000000000005 0 0 0
3556 3557 2 -0.6 22.995 29.207838289999984 3.7620000000000005 0 0 0
3560 3561 2 -0.6 25.294499999999996 25.224987459999983 3.7620000000000005 0 0 0
4004 4005 2 -0.6 25.29472995 30.53532247 0 0 0 0
4008 4009 2 -0.6 27.59422995 26.55247164 0 0 0 0
4072 4073 2 -0.6 22.99522995 26.55247164 0 0 0 0
1689 1690 1 0.6 32.19322995 26.55247164 4.7070144 0 0 0
1693 1694 1 0.6 29.89372995 30.53532247 4.7070144 0 0 0
1757 1758 1 0.6 34.49272995 30.53532247 4.7070144 0 0 0
2649 2650 1 0.6 29.893499999999996 25.224987459999983 0.9450143999999999 0 0 0
2713 2714 1 0.6 34.4925 25.224987459999983 0.9450143999999999 0 0 0
2717 2718 1 0.6 32.193 29.207838289999984 0.9450143999999999 0 0 0
3428 3429 2 -0.6 32.193 29.207838289999984 3.7620000000000005 0 0 0
3432 3433 2 -0.6 34.4925 25.224987459999983 3.7620000000000005 0 0 0
3496 3497 2 -0.6 29.893499999999996 25.224987459999983 3.7620000000000005 0 0 0
3876 3877 2 -0.6 34.49272995 30.53532247 0 0 0 0
3940 3941 2 -0.6 29.89372995 30.53532247 0 0 0 0
3944 3945 2 -0.6 32.19322995 26.55247164 0 0 0 0
1538 1539 1 0.6 0.00022994999999999998 2.6553666499999977 12.2310144 0 0 0
1602 1603 1 0.6 4.59922995 2.6553666499999977 12.2310144 0 0 0
1606 1607 1 0.6 2.29972995 6.638217479999995 12.2310144 0 0 0
1670 1671 1 0.6 6.89872995 6.638217479999995 12.2310144 0 0 0
2562 2563 1 0.6 2.2995 1.32788247 8.4690144 0 0 0
2566 2567 1 0.6 0 5.310733299999995 8.4690144 0 0 0
2626 2627 1 0.6 6.8985 1.32788247 8.4690144 0 0 0
2630 2631 1 0.6 4.599 5.310733299999995 8.4690144 0 0 0
3515 3516 2 -0.6 4.599 5.310733299999995 11.286 0 0 0
3519 3520 2 -0.6 6.8985 1.32788247 11.286 0 0 0
3579 3580 2 -0.6 0 5.310733299999995 11.286 0 0 0
3583 3584 2 -0.6 2.2995 1.32788247 11.286 0 0 0
3963 3964 2 -0.6 6.89872995 6.638217479999995 7.524000000000001 0 0 0
4027 4028 2 -0.6 2.29972995 6.638217479999995 7.524000000000001 0 0 0
4031 4032 2 -0.6 4.59922995 2.6553666499999977 7.524000000000001 0 0 0
4095 4096 2 -0.6 0.00022994999999999998 2.6553666499999977 7.524000000000001 0 0 0
1666 1667 1 0.6 9.19822995 2.6553666499999977 12.2310144 0 0 0
1730 1731 1 0.6 13.79722995 2.6553666499999977 12.2310144 0 0 0
1734 1735 1 0.6 11.49772995 6.638217479999995 12.2310144 0 0 0
2690 2691 1 0.6 11.4975 1.32788247 8.4690144 0 0 0
2694 2695 1 0.6 9.198 5.310733299999995 8.4690144 0 0 0
2758 2759 1 0.6 13.797 5.310733299999995 8.4690144 0 0 0
3387 3388 2 -0.6 13.797 5.310733299999995 11.286 0 0 0
3451 3452 2 -0.6 9.198 5.310733299999995 11.286 0 0 0
3455 3456 2 -0.6 11.4975 1.32788247 11.286 0 0 0
3899 3900 2 -0.6 11.49772995 6.638217479999995 7.524000000000001 0 0 0
3903 3904 2 -0.6 13.79722995 2.6553666499999977 7.524000000000001 0 0 0
3967 3968 2 -0.6 9.19822995 2.6553666499999977 7.524000000000001 0 0 0
1794 1795 1 0.6 18.39622995 2.6553666499999977 12.2310144 0 0 0
1798 1799 1 0.6 16.09672995 6.638217479999995 12.2310144 0 0 0
1862 1863 1 0.6 20.69572995 6.638217479999995 12.2310144 0 0 0
2754 2755 1 0.6 16.0965 1.32788247 8.4690144 0 0 0
2818 2819 1 0.6 20.695500000000003 1.32788247 8.4690144 0 0 0
2822 2823 1 0.6 18.396 5.310733299999995 8.4690144 0 0 0
3323 3324 2 -0.6 18.396 5.310733299999995 11.286 0 0 0
3327 3328 2 -0.6 20.695500000000003 1.32788247 11.286 0 0 0
3391 3392 2 -0.6 16.0965 1.32788247 11.286 0 0 0
3771 3772 2 -0.6 20.69572995 6.638217479999995 7.524000000000001 0 0 0
3835 3836 2 -0.6 16.09672995 6.638217479999995 7.524000000000001 0 0 0
3839 3840 2 -0.6 18.39622995 2.6553666499999977 7.524000000000001 0 0 0
1858 1859 1 0.6 22.99522995 2.6553666499999977 12.2310144 0 0 0
1922 1923 1 0.6 27.59422995 2.6553666499999977 12.2310144 0 0 0
1926 1927 1 0.6 25.29472995 6.638217479999995 12.2310144 0 0 0
2882 2883 1 0.6 25.294499999999996 1.32788247 8.4690144 0 0 0
2886 2887 1 0.6 22.995 5.310733299999995 8.4690144 0 0 0
2950 2951 1 0.6 27.594 5.310733299999995 8.4690144 0 0 0
3195 3196 2 -0.6 27.594 5.310733299999995 11.286 0 0 0
3259 3260 2 -0.6 22.995 5.310733299999995 11.286 0 0 0
3263 3264 2 -0.6 25.294499999999996 1.32788247 11.286 0 0 0
3707 3708 2 -0.6 25.29472995 6.638217479999995 7.524000000000001 0 0 0
3711 3712 2 -0.6 27.59422995 2.6553666499999977 7.524000000000001 0 0 0
3775 3776 2 -0.6 22.99522995 2.6553666499999977 7.524000000000001 0 0 0
1542 1543 1 0.6 34.49272995 6.638217479999995 12.2310144 0 0 0
1986 1987 1 0.6 32.19322995 2.6553666499999977 12.2310144 0 0 0
1990 1991 1 0.6 29.89372995 6.638217479999995 12.2310144 0 0 0
2946 2947 1 0.6 29.893499999999996 1.32788247 8.4690144 0 0 0
3010 3011 1 0.6 34.4925 1.32788247 8.4690144 0 0 0
3014 3015 1 0.6 32.193 5.310733299999995 8.4690144 0 0 0
3131 3132 2 -0.6 32.193 5.310733299999995 11.286 0 0 0
3135 3136 2 -0.6 34.4925 1.32788247 11.286 0 0 0
3199 3200 2 -0.6 29.893499999999996 1.32788247 11.286 0 0 0
3643 3644 2 -0.6 29.89372995 6.638217479999995 7.524000000000001 0 0 0
3647 3648 2 -0.6 32.19322995 2.6553666499999977 7.524000000000001 0 0 0
4091 4092 2 -0.6 34.49272995 6.638217479999995 7.524000000000001 0 0 0
1610 1611 1 0.6 0.00022994999999999998 10.62106831 12.2310144 0 0 0
1674 1675 1 0.6 4.59922995 10.62106831 12.2310144 0 0 0
1678 1679 1 0.6 2.29972995 14.60391915 12.2310144 0 0 0
1742 1743 1 0.6 6.89872995 14.60391915 12.2310144 0 0 0
2634 2635 1 0.6 2.2995 9.29358413 8.4690144 0 0 0
2638 2639 1 0.6 0 13.27643495999999 8.4690144 0 0 0
2698 2699 1 0.6 6.8985 9.29358413 8.4690144 0 0 0
2702 2703 1 0.6 4.599 13.27643495999999 8.4690144 0 0 0
3443 3444 2 -0.6 4.599 13.27643495999999 11.286 0 0 0
3447 3448 2 -0.6 6.8985 9.29358413 11.286 0 0 0
3507 3508 2 -0.6 0 13.27643495999999 11.286 0 0 0
3511 3512 2 -0.6 2.2995 9.29358413 11.286 0 0 0
3891 3892 2 -0.6 6.89872995 14.60391915 7.524000000000001 0 0 0
3955 3956 2 -0.6 2.29972995 14.60391915 7.524000000000001 0 0 0
3959 3960 2 -0.6 4.59922995 10.62106831 7.524000000000001 0 0 0
4023 4024 2 -0.6 0.00022994999999999998 10.62106831 7.524000000000001 0 0 0
1738 1739 1 0.6 9.19822995 10.62106831 12.2310144 0 0 0
1802 1803 1 0.6 13.79722995 10.62106831 12.2310144 0 0 0
1806 1807 1 0.6 11.49772995 14.60391915 12.2310144 0 0 0
2762 2763 1 0.6 11.4975 9.29358413 8.4690144 0 0 0
2766 2767 1 0.6 9.198 13.27643495999999 8.4690144 0 0 0
2830 2831 1 0.6 13.797 13.27643495999999 8.4690144 0 0 0
3315 3316 2 -0.6 13.797 13.27643495999999 11.286 0 0 0
3379 3380 2 -0.6 9.198 13.27643495999999 11.286 0 0 0
3383 3384 2 -0.6 11.4975 9.29358413 11.286 0 0 0
3827 3828 2 -0.6 11.49772995 14.60391915 7.524000000000001 0 0 0
3831 3832 2 -0.6 13.79722995 10.62106831 7.524000000000001 0 0 0
3895 3896 2 -0.6 9.19822995 10.62106831 7.524000000000001 0 0 0
1866 1867 1 0.6 18.39622995 10.62106831 12.2310144 0 0 0
1870 1871 1 0.6 16.09672995 14.60391915 12.2310144 0 0 0
1934 1935 1 0.6 20.69572995 14.60391915 12.2310144 0 0 0
2826 2827 1 0.6 16.0965 9.29358413 8.4690144 0 0 0
2890 2891 1 0.6 20.695500000000003 9.29358413 8.4690144 0 0 0
2894 2895 1 0.6 18.396 13.27643495999999 8.4690144 0 0 0
3251 3252 2 -0.6 18.396 13.27643495999999 11.286 0 0 0
3255 3256 2 -0.6 20.695500000000003 9.29358413 11.286 0 0 0
3319 3320 2 -0.6 16.0965 9.29358413 11.286 0 0 0
3699 3700 2 -0.6 20.69572995 14.60391915 7.524000000000001 0 0 0
3763 3764 2 -0.6 16.09672995 14.60391915 7.524000000000001 0 0 0
3767 3768 2 -0.6 18.39622995 10.62106831 7.524000000000001 0 0 0
1930 1931 1 0.6 22.99522995 10.62106831 12.2310144 0 0 0
1994 1995 1 0.6 27.59422995 10.62106831 12.2310144 0 0 0
1998 1999 1 0.6 25.29472995 14.60391915 12.2310144 0 0 0
2954 2955 1 0.6 25.294499999999996 9.29358413 8.4690144 0 0 0
2958 2959 1 0.6 22.995 13.27643495999999 8.4690144 0 0 0
3022 3023 1 0.6 27.594 13.27643495999999 8.4690144 0 0 0
3123 3124 2 -0.6 27.594 13.27643495999999 11.286 0 0 0
3187 3188 2 -0.6 22.995 13.27643495999999 11.286 0 0 0
3191 3192 2 -0.6 25.294499999999996 9.29358413 11.286 0 0 0
3635 3636 2 -0.6 25.29472995 14.60391915 7.524000000000001 0 0 0
3639 3640 2 -0.6 27.59422995 10.62106831 7.524000000000001 0 0 0
3703 3704 2 -0.6 22.99522995 10.62106831 7.524000000000001 0 0 0
1546 1547 1 0.6 32.19322995 10.62106831 12.2310144 0 0 0
1550 1551 1 0.6 29.89372995 14.60391915 12.2310144 0 0 0
1614 1615 1 0.6 34.49272995 14.60391915 12.2310144 0 0 0
2570 2571 1 0.6 34.4925 9.29358413 8.4690144 0 0 0
2574 2575 1 0.6 32.193 13.27643495999999 8.4690144 0 0 0
3018 3019 1 0.6 29.893499999999996 9.29358413 8.4690144 0 0 0
3127 3128 2 -0.6 29.893499999999996 9.29358413 11.286 0 0 0
3571 3572 2 -0.6 32.193 13.27643495999999 11.286 0 0 0
3575 3576 2 -0.6 34.4925 9.29358413 11.286 0 0 0
4019 4020 2 -0.6 34.49272995 14.60391915 7.524000000000001 0 0 0
4083 4084 2 -0.6 29.89372995 14.60391915 7.524000000000001 0 0 0
4087 4088 2 -0.6 32.19322995 10.62106831 7.524000000000001 0 0 0
1682 1683 1 0.6 0.00022994999999999998 18.58676998 12.2310144 0 0 0
1746 1747 1 0.6 4.59922995 18.58676998 12.2310144 0 0 0
1750 1751 1 0.6 2.29972995 22.56962081 12.2310144 0 0 0
1814 1815 1 0.6 6.89872995 22.56962081 12.2310144 0 0 0
2706 2707 1 0.6 2.2995 17.25928579 8.4690144 0 0 0
2710 2711 1 0.6 0 21.242136629999983 8.4690144 0 0 0
2770 2771 1 0.6 6.8985 17.25928579 8.4690144 0 0 0
2774 2775 1 0.6 4.599 21.242136629999983 8.4690144 0 0 0
3371 3372 2 -0.6 4.599 21.242136629999983 11.286 0 0 0
3375 3376 2 -0.6 6.8985 17.25928579 11.286 0 0 0
3435 3436 2 -0.6 0 21.242136629999983 11.286 0 0 0
3439 3440 2 -0.6 2.2995 17.25928579 11.286 0 0 0
3819 3820 2 -0.6 6.89872995 22.56962081 7.524000000000001 0 0 0
3883 3884 2 -0.6 2.29972995 22.56962081 7.524000000000001 0 0 0
3887 3888 2 -0.6 4.59922995 18.58676998 7.524000000000001 0 0 0
3951 3952 2 -0.6 0.00022994999999999998 18.58676998 7.524000000000001 0 0 0
1810 1811 1 0.6 9.19822995 18.58676998 12.2310144 0 0 0
1874 1875 1 0.6 13.79722995 18.58676998 12.2310144 0 0 0
1878 1879 1 0.6 11.49772995 22.56962081 12.2310144 0 0 0
2834 2835 1 0.6 11.4975 17.25928579 8.4690144 0 0 0
2838 2839 1 0.6 9.198 21.242136629999983 8.4690144 0 0 0
2902 2903 1 0.6 13.797 21.242136629999983 8.4690144 0 0 0
3243 3244 2 -0.6 13.797 21.242136629999983 11.286 0 0 0
3307 3308 2 -0.6 9.198 21.242136629999983 11.286 0 0 0
3311 3312 2 -0.6 11.4975 17.25928579 11.286 0 0 0
3755 3756 2 -0.6 11.49772995 22.56962081 7.524000000000001 0 0 0
3759 3760 2 -0.6 13.79722995 18.58676998 7.524000000000001 0 0 0
3823 3824 2 -0.6 9.19822995 18.58676998 7.524000000000001 0 0 0
1938 1939 1 0.6 18.39622995 18.58676998 12.2310144 0 0 0
1942 1943 1 0.6 16.09672995 22.56962081 12.2310144 0 0 0
2006 2007 1 0.6 20.69572995 22.56962081 12.2310144 0 0 0
2898 2899 1 0.6 16.0965 17.25928579 8.4690144 0 0 0
2962 2963 1 0.6 20.695500000000003 17.25928579 8.4690144 0 0 0
2966 2967 1 0.6 18.396 21.242136629999983 8.4690144 0 0 0
3179 3180 2 -0.6 18.396 21.242136629999983 11.286 0 0 0
3183 3184 2 -0.6 20.695500000000003 17.25928579 11.286 0 0 0
3247 3248 2 -0.6 16.0965 17.25928579 11.286 0 0 0
3627 3628 2 -0.6 20.69572995 22.56962081 7.524000000000001 0 0 0
3691 3692 2 -0.6 16.09672995 22.56962081 7.524000000000001 0 0 0
3695 3696 2 -0.6 18.39622995 18.58676998 7.524000000000001 0 0 0
1554 1555 1 0.6 27.59422995 18.58676998 12.2310144 0 0 0
1558 1559 1 0.6 25.29472995 22.56962081 12.2310144 0 0 0
2002 2003 1 0.6 22.99522995 18.58676998 12.2310144 0 0 0
2582 2583 1 0.6 27.594 21.242136629999983 8.4690144 0 0 0
3026 3027 1 0.6 25.294499999999996 17.25928579 8.4690144 0 0 0
3030 3031 1 0.6 22.995 21.242136629999983 8.4690144 0 0 0
3115 3116 2 -0.6 22.995 21.242136629999983 11.286 0 0 0
3119 3120 2 -0.6 25.294499999999996 17.25928579 11.286 0 0 0
3563 3564 2 -0.6 27.594 21.242136629999983 11.286 0 0 0
3631 3632 2 -0.6 22.99522995 18.58676998 7.524000000000001 0 0 0
4075 4076 2 -0.6 25.29472995 22.56962081 7.524000000000001 0 0 0
4079 4080 2 -0.6 27.59422995 18.58676998 7.524000000000001 0 0 0
1618 1619 1 0.6 32.19322995 18.58676998 12.2310144 0 0 0
1622 1623 1 0.6 29.89372995 22.56962081 12.2310144 0 0 0
1686 1687 1 0.6 34.49272995 22.56962081 12.2310144 0 0 0
2578 2579 1 0.6 29.893499999999996 17.25928579 8.4690144 0 0 0
2642 2643 1 0.6 34.4925 17.25928579 8.4690144 0 0 0
2646 2647 1 0.6 32.193 21.242136629999983 8.4690144 0 0 0
3499 3500 2 -0.6 32.193 21.242136629999983 11.286 0 0 0
3503 3504 2 -0.6 34.4925 17.25928579 11.286 0 0 0
3567 3568 2 -0.6 29.893499999999996 17.25928579 11.286 0 0 0
3947 3948 2 -0.6 34.49272995 22.56962081 7.524000000000001 0 0 0
4011 4012 2 -0.6 29.89372995 22.56962081 7.524000000000001 0 0 0
4015 4016 2 -0.6 32.19322995 18.58676998 7.524000000000001 0 0 0
1754 1755 1 0.6 0.00022994999999999998 26.55247164 12.2310144 0 0 0
1818 1819 1 0.6 4.59922995 26.55247164 12.2310144 0 0 0
1822 1823 1 0.6 2.29972995 30.53532247 12.2310144 0 0 0
1886 1887 1 0.6 6.89872995 30.53532247 12.2310144 0 0 0
2778 2779 1 0.6 2.2995 25.224987459999983 8.4690144 0 0 0
2782 2783 1 0.6 0 29.207838289999984 8.4690144 0 0 0
2842 2843 1 0.6 6.8985 25.224987459999983 8.4690144 0 0 0
2846 2847 1 0.6 4.599 29.207838289999984 8.4690144 0 0 0
3299 3300 2 -0.6 4.599 29.207838289999984 11.286 0 0 0
3303 3304 2 -0.6 6.8985 25.224987459999983 11.286 0 0 0
3363 3364 2 -0.6 0 29.207838289999984 11.286 0 0 0
3367 3368 2 -0.6 2.2995 25.224987459999983 11.286 0 0 0
3747 3748 2 -0.6 6.89872995 30.53532247 7.524000000000001 0 0 0
3811 3812 2 -0.6 2.29972995 30.53532247 7.524000000000001 0 0 0
3815 3816 2 -0.6 4.59922995 26.55247164 7.524000000000001 0 0 0
3879 3880 2 -0.6 0.00022994999999999998 26.55247164 7.524000000000001 0 0 0
1882 1883 1 0.6 9.19822995 26.55247164 12.2310144 0 0 0
1946 1947 1 0.6 13.79722995 26.55247164 12.2310144 0 0 0
1950 1951 1 0.6 11.49772995 30.53532247 12.2310144 0 0 0
2906 2907 1 0.6 11.4975 25.224987459999983 8.4690144 0 0 0
2910 2911 1 0.6 9.198 29.207838289999984 8.4690144 0 0 0
2974 2975 1 0.6 13.797 29.207838289999984 8.4690144 0 0 0
3171 3172 2 -0.6 13.797 29.207838289999984 11.286 0 0 0
3235 3236 2 -0.6 9.198 29.207838289999984 11.286 0 0 0
3239 3240 2 -0.6 11.4975 25.224987459999983 11.286 0 0 0
3683 3684 2 -0.6 11.49772995 30.53532247 7.524000000000001 0 0 0
3687 3688 2 -0.6 13.79722995 26.55247164 7.524000000000001 0 0 0
3751 3752 2 -0.6 9.19822995 26.55247164 7.524000000000001 0 0 0
1566 1567 1 0.6 20.69572995 30.53532247 12.2310144 0 0 0
2010 2011 1 0.6 18.39622995 26.55247164 12.2310144 0 0 0
2014 2015 1 0.6 16.09672995 30.53532247 12.2310144 0 0 0
2970 2971 1 0.6 16.0965 25.224987459999983 8.4690144 0 0 0
3034 3035 1 0.6 20.695500000000003 25.224987459999983 8.4690144 0 0 0
3038 3039 1 0.6 18.396 29.207838289999984 8.4690144 0 0 0
3107 3108 2 -0.6 18.396 29.207838289999984 11.286 0 0 0
3111 3112 2 -0.6 20.695500000000003 25.224987459999983 11.286 0 0 0
3175 3176 2 -0.6 16.0965 25.224987459999983 11.286 0 0 0
3619 3620 2 -0.6 16.09672995 30.53532247 7.524000000000001 0 0 0
3623 3624 2 -0.6 18.39622995 26.55247164 7.524000000000001 0 0 0
4067 4068 2 -0.6 20.69572995 30.53532247 7.524000000000001 0 0 0
1562 1563 1 0.6 22.99522995 26.55247164 12.2310144 0 0 0
1626 1627 1 0.6 27.59422995 26.55247164 12.2310144 0 0 0
1630 1631 1 0.6 25.29472995 30.53532247 12.2310144 0 0 0
2586 2587 1 0.6 25.294499999999996 25.224987459999983 8.4690144 0 0 0
2590 2591 1 0.6 22.995 29.207838289999984 8.4690144 0 0 0
2654 2655 1 0.6 27.594 29.207838289999984 8.4690144 0 0 0
3491 3492 2 -0.6 27.594 29.207838289999984 11.286 0 0 0