
8112 atoms 
2 atom types 
5408 bonds 
1 bond types 
2704 angles 
1 angle types 

0.00000000 36.79200000 xlo xhi
0.00000000 63.72561331 ylo yhi
28.00000000 60.00000000 zlo zhi
0.00000000 0.00000000 0.00000000 xy xz yz

Masses 

1 15.9994 
2 1.008

Bond Coeffs # harmonic 

1  0.9572 

Angle Coeffs # harmonic 

1  104.52 

Atoms 

1 1 1 -0.84760000 23.30160000  21.37375853 30.00000000
2 1 2 0.42380000 22.54460000  21.95965853 30.00000000
3 1 2 0.42380000 24.05860000  21.95965853 30.00000000
4 2 1 -0.84760000 8.58480000  3.53058680 30.00000000
5 2 2 0.42380000 7.82780000  4.11648680 30.00000000
6 2 2 0.42380000 9.34180000  4.11648680 30.00000000
7 3 1 -0.84760000 6.13200000  57.06010198 30.00000000
8 3 2 0.42380000 5.37500000  57.64600198 30.00000000
9 3 2 0.42380000 6.88900000  57.64600198 30.00000000
10 4 1 -0.84760000 35.56560000  51.96205291 30.00000000
11 4 2 0.42380000 34.80860000  52.54795291 30.00000000
12 4 2 0.42380000 36.32260000  52.54795291 30.00000000
13 5 1 -0.84760000 25.75440000  23.92278306 30.00000000
14 5 2 0.42380000 24.99740000  24.50868306 30.00000000
15 5 2 0.42380000 26.51140000  24.50868306 30.00000000
16 6 1 -0.84760000 18.39600000  13.72668493 30.00000000
17 6 2 0.42380000 17.63900000  14.31258493 30.00000000
18 6 2 0.42380000 19.15300000  14.31258493 30.00000000
19 7 1 -0.84760000 1.22640000  51.96205291 30.00000000
20 7 2 0.42380000 0.46940000  52.54795291 30.00000000
21 7 2 0.42380000 1.98340000  52.54795291 30.00000000
22 8 1 -0.84760000 30.66000000  59.60912651 30.00000000
23 8 2 0.42380000 29.90300000  60.19502651 30.00000000
24 8 2 0.42380000 31.41700000  60.19502651 30.00000000
25 9 1 -0.84760000 30.66000000  41.76595478 30.00000000
26 9 2 0.42380000 29.90300000  42.35185478 30.00000000
27 9 2 0.42380000 31.41700000  42.35185478 30.00000000
28 10 1 -0.84760000 25.75440000  44.31497932 30.00000000
29 10 2 0.42380000 24.99740000  44.90087932 30.00000000
30 10 2 0.42380000 26.51140000  44.90087932 30.00000000
31 11 1 -0.84760000 3.67920000  18.82473399 30.00000000
32 11 2 0.42380000 2.92220000  19.41063399 30.00000000
33 11 2 0.42380000 4.43620000  19.41063399 30.00000000
34 12 1 -0.84760000 8.58480000  23.92278306 30.00000000
35 12 2 0.42380000 7.82780000  24.50868306 30.00000000
36 12 2 0.42380000 9.34180000  24.50868306 30.00000000
37 13 1 -0.84760000 28.20720000  6.07961133 30.00000000
38 13 2 0.42380000 27.45020000  6.66551133 30.00000000
39 13 2 0.42380000 28.96420000  6.66551133 30.00000000
40 14 1 -0.84760000 15.94320000  49.41302838 30.00000000
41 14 2 0.42380000 15.18620000  49.99892838 30.00000000
42 14 2 0.42380000 16.70020000  49.99892838 30.00000000
43 15 1 -0.84760000 25.75440000  51.96205291 30.00000000
44 15 2 0.42380000 24.99740000  52.54795291 30.00000000
45 15 2 0.42380000 26.51140000  52.54795291 30.00000000
46 16 1 -0.84760000 30.66000000  6.07961133 30.00000000
47 16 2 0.42380000 29.90300000  6.66551133 30.00000000
48 16 2 0.42380000 31.41700000  6.66551133 30.00000000
49 17 1 -0.84760000 35.56560000  46.86400385 30.00000000
50 17 2 0.42380000 34.80860000  47.44990385 30.00000000
51 17 2 0.42380000 36.32260000  47.44990385 30.00000000
52 18 1 -0.84760000 33.11280000  11.17766040 30.00000000
53 18 2 0.42380000 32.35580000  11.76356040 30.00000000
54 18 2 0.42380000 33.86980000  11.76356040 30.00000000
55 19 1 -0.84760000 20.84880000  62.15815104 30.00000000
56 19 2 0.42380000 20.09180000  62.74405104 30.00000000
57 19 2 0.42380000 21.60580000  62.74405104 30.00000000
58 20 1 -0.84760000 33.11280000  57.06010198 30.00000000
59 20 2 0.42380000 32.35580000  57.64600198 30.00000000
60 20 2 0.42380000 33.86980000  57.64600198 30.00000000
61 21 1 -0.84760000 30.66000000  16.27570946 30.00000000
62 21 2 0.42380000 29.90300000  16.86160946 30.00000000
63 21 2 0.42380000 31.41700000  16.86160946 30.00000000
64 22 1 -0.84760000 13.49040000  49.41302838 30.00000000
65 22 2 0.42380000 12.73340000  49.99892838 30.00000000
66 22 2 0.42380000 14.24740000  49.99892838 30.00000000
67 23 1 -0.84760000 6.13200000  36.66790572 30.00000000
68 23 2 0.42380000 5.37500000  37.25380572 30.00000000
69 23 2 0.42380000 6.88900000  37.25380572 30.00000000
70 24 1 -0.84760000 3.67920000  21.37375853 30.00000000
71 24 2 0.42380000 2.92220000  21.95965853 30.00000000
72 24 2 0.42380000 4.43620000  21.95965853 30.00000000
73 25 1 -0.84760000 35.56560000  41.76595478 30.00000000
74 25 2 0.42380000 34.80860000  42.35185478 30.00000000
75 25 2 0.42380000 36.32260000  42.35185478 30.00000000
76 26 1 -0.84760000 28.20720000  54.51107745 30.00000000
77 26 2 0.42380000 27.45020000  55.09697745 30.00000000
78 26 2 0.42380000 28.96420000  55.09697745 30.00000000
79 27 1 -0.84760000 23.30160000  62.15815104 30.00000000
80 27 2 0.42380000 22.54460000  62.74405104 30.00000000
81 27 2 0.42380000 24.05860000  62.74405104 30.00000000
82 28 1 -0.84760000 20.84880000  41.76595478 30.00000000
83 28 2 0.42380000 20.09180000  42.35185478 30.00000000
84 28 2 0.42380000 21.60580000  42.35185478 30.00000000
85 29 1 -0.84760000 3.67920000  57.06010198 30.00000000
86 29 2 0.42380000 2.92220000  57.64600198 30.00000000
87 29 2 0.42380000 4.43620000  57.64600198 30.00000000
88 30 1 -0.84760000 8.58480000  62.15815104 30.00000000
89 30 2 0.42380000 7.82780000  62.74405104 30.00000000
90 30 2 0.42380000 9.34180000  62.74405104 30.00000000
91 31 1 -0.84760000 35.56560000  59.60912651 30.00000000
92 31 2 0.42380000 34.80860000  60.19502651 30.00000000
93 31 2 0.42380000 36.32260000  60.19502651 30.00000000
94 32 1 -0.84760000 15.94320000  16.27570946 30.00000000
95 32 2 0.42380000 15.18620000  16.86160946 30.00000000
96 32 2 0.42380000 16.70020000  16.86160946 30.00000000
97 33 1 -0.84760000 3.67920000  3.53058680 30.00000000
98 33 2 0.42380000 2.92220000  4.11648680 30.00000000
99 33 2 0.42380000 4.43620000  4.11648680 30.00000000
100 34 1 -0.84760000 33.11280000  49.41302838 30.00000000
101 34 2 0.42380000 32.35580000  49.99892838 30.00000000
102 34 2 0.42380000 33.86980000  49.99892838 30.00000000
103 35 1 -0.84760000 35.56560000  16.27570946 30.00000000
104 35 2 0.42380000 34.80860000  16.86160946 30.00000000
105 35 2 0.42380000 36.32260000  16.86160946 30.00000000
106 36 1 -0.84760000 3.67920000  46.86400385 30.00000000
107 36 2 0.42380000 2.92220000  47.44990385 30.00000000
108 36 2 0.42380000 4.43620000  47.44990385 30.00000000
109 37 1 -0.84760000 28.20720000  57.06010198 30.00000000
110 37 2 0.42380000 27.45020000  57.64600198 30.00000000
111 37 2 0.42380000 28.96420000  57.64600198 30.00000000
112 38 1 -0.84760000 13.49040000  44.31497932 30.00000000
113 38 2 0.42380000 12.73340000  44.90087932 30.00000000
114 38 2 0.42380000 14.24740000  44.90087932 30.00000000
115 39 1 -0.84760000 1.22640000  36.66790572 30.00000000
116 39 2 0.42380000 0.46940000  37.25380572 30.00000000
117 39 2 0.42380000 1.98340000  37.25380572 30.00000000
118 40 1 -0.84760000 13.49040000  46.86400385 30.00000000
119 40 2 0.42380000 12.73340000  47.44990385 30.00000000
120 40 2 0.42380000 14.24740000  47.44990385 30.00000000
121 41 1 -0.84760000 20.84880000  44.31497932 30.00000000
122 41 2 0.42380000 20.09180000  44.90087932 30.00000000
123 41 2 0.42380000 21.60580000  44.90087932 30.00000000
124 42 1 -0.84760000 33.11280000  23.92278306 30.00000000
125 42 2 0.42380000 32.35580000  24.50868306 30.00000000
126 42 2 0.42380000 33.86980000  24.50868306 30.00000000
127 43 1 -0.84760000 13.49040000  13.72668493 30.00000000
128 43 2 0.42380000 12.73340000  14.31258493 30.00000000
129 43 2 0.42380000 14.24740000  14.31258493 30.00000000
130 44 1 -0.84760000 11.03760000  31.56985665 30.00000000
131 44 2 0.42380000 10.28060000  32.15575665 30.00000000
132 44 2 0.42380000 11.79460000  32.15575665 30.00000000
133 45 1 -0.84760000 1.22640000  0.98156227 30.00000000
134 45 2 0.42380000 0.46940000  1.56746227 30.00000000
135 45 2 0.42380000 1.98340000  1.56746227 30.00000000
136 46 1 -0.84760000 25.75440000  26.47180759 30.00000000
137 46 2 0.42380000 24.99740000  27.05770759 30.00000000
138 46 2 0.42380000 26.51140000  27.05770759 30.00000000
139 47 1 -0.84760000 25.75440000  59.60912651 30.00000000
140 47 2 0.42380000 24.99740000  60.19502651 30.00000000
141 47 2 0.42380000 26.51140000  60.19502651 30.00000000
142 48 1 -0.84760000 28.20720000  26.47180759 30.00000000
143 48 2 0.42380000 27.45020000  27.05770759 30.00000000
144 48 2 0.42380000 28.96420000  27.05770759 30.00000000
145 49 1 -0.84760000 30.66000000  39.21693025 30.00000000
146 49 2 0.42380000 29.90300000  39.80283025 30.00000000
147 49 2 0.42380000 31.41700000  39.80283025 30.00000000
148 50 1 -0.84760000 35.56560000  34.11888119 30.00000000
149 50 2 0.42380000 34.80860000  34.70478119 30.00000000
150 50 2 0.42380000 36.32260000  34.70478119 30.00000000
151 51 1 -0.84760000 20.84880000  46.86400385 30.00000000
152 51 2 0.42380000 20.09180000  47.44990385 30.00000000
153 51 2 0.42380000 21.60580000  47.44990385 30.00000000
154 52 1 -0.84760000 15.94320000  11.17766040 30.00000000
155 52 2 0.42380000 15.18620000  11.76356040 30.00000000
156 52 2 0.42380000 16.70020000  11.76356040 30.00000000
157 53 1 -0.84760000 28.20720000  59.60912651 30.00000000
158 53 2 0.42380000 27.45020000  60.19502651 30.00000000
159 53 2 0.42380000 28.96420000  60.19502651 30.00000000
160 54 1 -0.84760000 28.20720000  0.98156227 30.00000000
161 54 2 0.42380000 27.45020000  1.56746227 30.00000000
162 54 2 0.42380000 28.96420000  1.56746227 30.00000000
163 55 1 -0.84760000 20.84880000  59.60912651 30.00000000
164 55 2 0.42380000 20.09180000  60.19502651 30.00000000
165 55 2 0.42380000 21.60580000  60.19502651 30.00000000
166 56 1 -0.84760000 15.94320000  41.76595478 30.00000000
167 56 2 0.42380000 15.18620000  42.35185478 30.00000000
168 56 2 0.42380000 16.70020000  42.35185478 30.00000000
169 57 1 -0.84760000 8.58480000  34.11888119 30.00000000
170 57 2 0.42380000 7.82780000  34.70478119 30.00000000
171 57 2 0.42380000 9.34180000  34.70478119 30.00000000
172 58 1 -0.84760000 3.67920000  62.15815104 30.00000000
173 58 2 0.42380000 2.92220000  62.74405104 30.00000000
174 58 2 0.42380000 4.43620000  62.74405104 30.00000000
175 59 1 -0.84760000 20.84880000  21.37375853 30.00000000
176 59 2 0.42380000 20.09180000  21.95965853 30.00000000
177 59 2 0.42380000 21.60580000  21.95965853 30.00000000
178 60 1 -0.84760000 1.22640000  59.60912651 30.00000000
179 60 2 0.42380000 0.46940000  60.19502651 30.00000000
180 60 2 0.42380000 1.98340000  60.19502651 30.00000000
181 61 1 -0.84760000 28.20720000  62.15815104 30.00000000
182 61 2 0.42380000 27.45020000  62.74405104 30.00000000
183 61 2 0.42380000 28.96420000  62.74405104 30.00000000
184 62 1 -0.84760000 20.84880000  6.07961133 30.00000000
185 62 2 0.42380000 20.09180000  6.66551133 30.00000000
186 62 2 0.42380000 21.60580000  6.66551133 30.00000000
187 63 1 -0.84760000 35.56560000  0.98156227 30.00000000
188 63 2 0.42380000 34.80860000  1.56746227 30.00000000
189 63 2 0.42380000 36.32260000  1.56746227 30.00000000
190 64 1 -0.84760000 8.58480000  26.47180759 30.00000000
191 64 2 0.42380000 7.82780000  27.05770759 30.00000000
192 64 2 0.42380000 9.34180000  27.05770759 30.00000000
193 65 1 -0.84760000 33.11280000  13.72668493 30.00000000
194 65 2 0.42380000 32.35580000  14.31258493 30.00000000
195 65 2 0.42380000 33.86980000  14.31258493 30.00000000
196 66 1 -0.84760000 30.66000000  34.11888119 30.00000000
197 66 2 0.42380000 29.90300000  34.70478119 30.00000000
198 66 2 0.42380000 31.41700000  34.70478119 30.00000000
199 67 1 -0.84760000 33.11280000  51.96205291 30.00000000
200 67 2 0.42380000 32.35580000  52.54795291 30.00000000
201 67 2 0.42380000 33.86980000  52.54795291 30.00000000
202 68 1 -0.84760000 1.22640000  62.15815104 30.00000000
203 68 2 0.42380000 0.46940000  62.74405104 30.00000000
204 68 2 0.42380000 1.98340000  62.74405104 30.00000000
205 69 1 -0.84760000 35.56560000  26.47180759 30.00000000
206 69 2 0.42380000 34.80860000  27.05770759 30.00000000
207 69 2 0.42380000 36.32260000  27.05770759 30.00000000
208 70 1 -0.84760000 8.58480000  57.06010198 30.00000000
209 70 2 0.42380000 7.82780000  57.64600198 30.00000000
210 70 2 0.42380000 9.34180000  57.64600198 30.00000000
211 71 1 -0.84760000 28.20720000  3.53058680 30.00000000
212 71 2 0.42380000 27.45020000  4.11648680 30.00000000
213 71 2 0.42380000 28.96420000  4.11648680 30.00000000
214 72 1 -0.84760000 20.84880000  54.51107745 30.00000000
215 72 2 0.42380000 20.09180000  55.09697745 30.00000000
216 72 2 0.42380000 21.60580000  55.09697745 30.00000000
217 73 1 -0.84760000 8.58480000  41.76595478 30.00000000
218 73 2 0.42380000 7.82780000  42.35185478 30.00000000
219 73 2 0.42380000 9.34180000  42.35185478 30.00000000
220 74 1 -0.84760000 15.94320000  8.62863586 30.00000000
221 74 2 0.42380000 15.18620000  9.21453586 30.00000000
222 74 2 0.42380000 16.70020000  9.21453586 30.00000000
223 75 1 -0.84760000 25.75440000  57.06010198 30.00000000
224 75 2 0.42380000 24.99740000  57.64600198 30.00000000
225 75 2 0.42380000 26.51140000  57.64600198 30.00000000
226 76 1 -0.84760000 35.56560000  57.06010198 30.00000000
227 76 2 0.42380000 34.80860000  57.64600198 30.00000000
228 76 2 0.42380000 36.32260000  57.64600198 30.00000000
229 77 1 -0.84760000 18.39600000  23.92278306 30.00000000
230 77 2 0.42380000 17.63900000  24.50868306 30.00000000
231 77 2 0.42380000 19.15300000  24.50868306 30.00000000
232 78 1 -0.84760000 20.84880000  23.92278306 30.00000000
233 78 2 0.42380000 20.09180000  24.50868306 30.00000000
234 78 2 0.42380000 21.60580000  24.50868306 30.00000000
235 79 1 -0.84760000 25.75440000  62.15815104 30.00000000
236 79 2 0.42380000 24.99740000  62.74405104 30.00000000
237 79 2 0.42380000 26.51140000  62.74405104 30.00000000
238 80 1 -0.84760000 28.20720000  49.41302838 30.00000000
239 80 2 0.42380000 27.45020000  49.99892838 30.00000000
240 80 2 0.42380000 28.96420000  49.99892838 30.00000000
241 81 1 -0.84760000 28.20720000  39.21693025 30.00000000
242 81 2 0.42380000 27.45020000  39.80283025 30.00000000
243 81 2 0.42380000 28.96420000  39.80283025 30.00000000
244 82 1 -0.84760000 11.03760000  23.92278306 30.00000000
245 82 2 0.42380000 10.28060000  24.50868306 30.00000000
246 82 2 0.42380000 11.79460000  24.50868306 30.00000000
247 83 1 -0.84760000 35.56560000  3.53058680 30.00000000
248 83 2 0.42380000 34.80860000  4.11648680 30.00000000
249 83 2 0.42380000 36.32260000  4.11648680 30.00000000
250 84 1 -0.84760000 25.75440000  36.66790572 30.00000000
251 84 2 0.42380000 24.99740000  37.25380572 30.00000000
252 84 2 0.42380000 26.51140000  37.25380572 30.00000000
253 85 1 -0.84760000 35.56560000  36.66790572 30.00000000
254 85 2 0.42380000 34.80860000  37.25380572 30.00000000
255 85 2 0.42380000 36.32260000  37.25380572 30.00000000
256 86 1 -0.84760000 18.39600000  49.41302838 30.00000000
257 86 2 0.42380000 17.63900000  49.99892838 30.00000000
258 86 2 0.42380000 19.15300000  49.99892838 30.00000000
259 87 1 -0.84760000 13.49040000  41.76595478 30.00000000
260 87 2 0.42380000 12.73340000  42.35185478 30.00000000
261 87 2 0.42380000 14.24740000  42.35185478 30.00000000
262 88 1 -0.84760000 6.13200000  41.76595478 30.00000000
263 88 2 0.42380000 5.37500000  42.35185478 30.00000000
264 88 2 0.42380000 6.88900000  42.35185478 30.00000000
265 89 1 -0.84760000 1.22640000  6.07961133 30.00000000
266 89 2 0.42380000 0.46940000  6.66551133 30.00000000
267 89 2 0.42380000 1.98340000  6.66551133 30.00000000
268 90 1 -0.84760000 23.30160000  39.21693025 30.00000000
269 90 2 0.42380000 22.54460000  39.80283025 30.00000000
270 90 2 0.42380000 24.05860000  39.80283025 30.00000000
271 91 1 -0.84760000 11.03760000  29.02083212 30.00000000
272 91 2 0.42380000 10.28060000  29.60673212 30.00000000
273 91 2 0.42380000 11.79460000  29.60673212 30.00000000
274 92 1 -0.84760000 6.13200000  23.92278306 30.00000000
275 92 2 0.42380000 5.37500000  24.50868306 30.00000000
276 92 2 0.42380000 6.88900000  24.50868306 30.00000000
277 93 1 -0.84760000 35.56560000  44.31497932 30.00000000
278 93 2 0.42380000 34.80860000  44.90087932 30.00000000
279 93 2 0.42380000 36.32260000  44.90087932 30.00000000
280 94 1 -0.84760000 15.94320000  54.51107745 30.00000000
281 94 2 0.42380000 15.18620000  55.09697745 30.00000000
282 94 2 0.42380000 16.70020000  55.09697745 30.00000000
283 95 1 -0.84760000 8.58480000  46.86400385 30.00000000
284 95 2 0.42380000 7.82780000  47.44990385 30.00000000
285 95 2 0.42380000 9.34180000  47.44990385 30.00000000
286 96 1 -0.84760000 23.30160000  57.06010198 30.00000000
287 96 2 0.42380000 22.54460000  57.64600198 30.00000000
288 96 2 0.42380000 24.05860000  57.64600198 30.00000000
289 97 1 -0.84760000 1.22640000  13.72668493 30.00000000
290 97 2 0.42380000 0.46940000  14.31258493 30.00000000
291 97 2 0.42380000 1.98340000  14.31258493 30.00000000
292 98 1 -0.84760000 6.13200000  39.21693025 30.00000000
293 98 2 0.42380000 5.37500000  39.80283025 30.00000000
294 98 2 0.42380000 6.88900000  39.80283025 30.00000000
295 99 1 -0.84760000 11.03760000  59.60912651 30.00000000
296 99 2 0.42380000 10.28060000  60.19502651 30.00000000
297 99 2 0.42380000 11.79460000  60.19502651 30.00000000
298 100 1 -0.84760000 1.22640000  46.86400385 30.00000000
299 100 2 0.42380000 0.46940000  47.44990385 30.00000000
300 100 2 0.42380000 1.98340000  47.44990385 30.00000000
301 101 1 -0.84760000 15.94320000  46.86400385 30.00000000
302 101 2 0.42380000 15.18620000  47.44990385 30.00000000
303 101 2 0.42380000 16.70020000  47.44990385 30.00000000
304 102 1 -0.84760000 13.49040000  8.62863586 30.00000000
305 102 2 0.42380000 12.73340000  9.21453586 30.00000000
306 102 2 0.42380000 14.24740000  9.21453586 30.00000000
307 103 1 -0.84760000 1.22640000  21.37375853 30.00000000
308 103 2 0.42380000 0.46940000  21.95965853 30.00000000
309 103 2 0.42380000 1.98340000  21.95965853 30.00000000
310 104 1 -0.84760000 3.67920000  59.60912651 30.00000000
311 104 2 0.42380000 2.92220000  60.19502651 30.00000000
312 104 2 0.42380000 4.43620000  60.19502651 30.00000000
313 105 1 -0.84760000 8.58480000  51.96205291 30.00000000
314 105 2 0.42380000 7.82780000  52.54795291 30.00000000
315 105 2 0.42380000 9.34180000  52.54795291 30.00000000
316 106 1 -0.84760000 18.39600000  21.37375853 30.00000000
317 106 2 0.42380000 17.63900000  21.95965853 30.00000000
318 106 2 0.42380000 19.15300000  21.95965853 30.00000000
319 107 1 -0.84760000 28.20720000  36.66790572 30.00000000
320 107 2 0.42380000 27.45020000  37.25380572 30.00000000
321 107 2 0.42380000 28.96420000  37.25380572 30.00000000
322 108 1 -0.84760000 6.13200000  0.98156227 30.00000000
323 108 2 0.42380000 5.37500000  1.56746227 30.00000000
324 108 2 0.42380000 6.88900000  1.56746227 30.00000000
325 109 1 -0.84760000 28.20720000  11.17766040 30.00000000
326 109 2 0.42380000 27.45020000  11.76356040 30.00000000
327 109 2 0.42380000 28.96420000  11.76356040 30.00000000
328 110 1 -0.84760000 8.58480000  59.60912651 30.00000000
329 110 2 0.42380000 7.82780000  60.19502651 30.00000000
330 110 2 0.42380000 9.34180000  60.19502651 30.00000000
331 111 1 -0.84760000 33.11280000  36.66790572 30.00000000
332 111 2 0.42380000 32.35580000  37.25380572 30.00000000
333 111 2 0.42380000 33.86980000  37.25380572 30.00000000
334 112 1 -0.84760000 6.13200000  29.02083212 30.00000000
335 112 2 0.42380000 5.37500000  29.60673212 30.00000000
336 112 2 0.42380000 6.88900000  29.60673212 30.00000000
337 113 1 -0.84760000 1.22640000  16.27570946 30.00000000
338 113 2 0.42380000 0.46940000  16.86160946 30.00000000
339 113 2 0.42380000 1.98340000  16.86160946 30.00000000
340 114 1 -0.84760000 30.66000000  49.41302838 30.00000000
341 114 2 0.42380000 29.90300000  49.99892838 30.00000000
342 114 2 0.42380000 31.41700000  49.99892838 30.00000000
343 115 1 -0.84760000 35.56560000  31.56985665 30.00000000
344 115 2 0.42380000 34.80860000  32.15575665 30.00000000
345 115 2 0.42380000 36.32260000  32.15575665 30.00000000
346 116 1 -0.84760000 30.66000000  46.86400385 30.00000000
347 116 2 0.42380000 29.90300000  47.44990385 30.00000000
348 116 2 0.42380000 31.41700000  47.44990385 30.00000000
349 117 1 -0.84760000 35.56560000  62.15815104 30.00000000
350 117 2 0.42380000 34.80860000  62.74405104 30.00000000
351 117 2 0.42380000 36.32260000  62.74405104 30.00000000
352 118 1 -0.84760000 1.22640000  57.06010198 30.00000000
353 118 2 0.42380000 0.46940000  57.64600198 30.00000000
354 118 2 0.42380000 1.98340000  57.64600198 30.00000000
355 119 1 -0.84760000 13.49040000  11.17766040 30.00000000
356 119 2 0.42380000 12.73340000  11.76356040 30.00000000
357 119 2 0.42380000 14.24740000  11.76356040 30.00000000
358 120 1 -0.84760000 20.84880000  36.66790572 30.00000000
359 120 2 0.42380000 20.09180000  37.25380572 30.00000000
360 120 2 0.42380000 21.60580000  37.25380572 30.00000000
361 121 1 -0.84760000 3.67920000  23.92278306 30.00000000
362 121 2 0.42380000 2.92220000  24.50868306 30.00000000
363 121 2 0.42380000 4.43620000  24.50868306 30.00000000
364 122 1 -0.84760000 8.58480000  16.27570946 30.00000000
365 122 2 0.42380000 7.82780000  16.86160946 30.00000000
366 122 2 0.42380000 9.34180000  16.86160946 30.00000000
367 123 1 -0.84760000 3.67920000  44.31497932 30.00000000
368 123 2 0.42380000 2.92220000  44.90087932 30.00000000
369 123 2 0.42380000 4.43620000  44.90087932 30.00000000
370 124 1 -0.84760000 18.39600000  57.06010198 30.00000000
371 124 2 0.42380000 17.63900000  57.64600198 30.00000000
372 124 2 0.42380000 19.15300000  57.64600198 30.00000000
373 125 1 -0.84760000 33.11280000  18.82473399 30.00000000
374 125 2 0.42380000 32.35580000  19.41063399 30.00000000
375 125 2 0.42380000 33.86980000  19.41063399 30.00000000
376 126 1 -0.84760000 18.39600000  16.27570946 30.00000000
377 126 2 0.42380000 17.63900000  16.86160946 30.00000000
378 126 2 0.42380000 19.15300000  16.86160946 30.00000000
379 127 1 -0.84760000 30.66000000  51.96205291 30.00000000
380 127 2 0.42380000 29.90300000  52.54795291 30.00000000
381 127 2 0.42380000 31.41700000  52.54795291 30.00000000
382 128 1 -0.84760000 33.11280000  62.15815104 30.00000000
383 128 2 0.42380000 32.35580000  62.74405104 30.00000000
384 128 2 0.42380000 33.86980000  62.74405104 30.00000000
385 129 1 -0.84760000 8.58480000  36.66790572 30.00000000
386 129 2 0.42380000 7.82780000  37.25380572 30.00000000
387 129 2 0.42380000 9.34180000  37.25380572 30.00000000
388 130 1 -0.84760000 1.22640000  31.56985665 30.00000000
389 130 2 0.42380000 0.46940000  32.15575665 30.00000000
390 130 2 0.42380000 1.98340000  32.15575665 30.00000000
391 131 1 -0.84760000 6.13200000  49.41302838 30.00000000
392 131 2 0.42380000 5.37500000  49.99892838 30.00000000
393 131 2 0.42380000 6.88900000  49.99892838 30.00000000
394 132 1 -0.84760000 15.94320000  39.21693025 30.00000000
395 132 2 0.42380000 15.18620000  39.80283025 30.00000000
396 132 2 0.42380000 16.70020000  39.80283025 30.00000000
397 133 1 -0.84760000 33.11280000  6.07961133 30.00000000
398 133 2 0.42380000 32.35580000  6.66551133 30.00000000
399 133 2 0.42380000 33.86980000  6.66551133 30.00000000
400 134 1 -0.84760000 11.03760000  46.86400385 30.00000000
401 134 2 0.42380000 10.28060000  47.44990385 30.00000000
402 134 2 0.42380000 11.79460000  47.44990385 30.00000000
403 135 1 -0.84760000 15.94320000  62.15815104 30.00000000
404 135 2 0.42380000 15.18620000  62.74405104 30.00000000
405 135 2 0.42380000 16.70020000  62.74405104 30.00000000
406 136 1 -0.84760000 33.11280000  54.51107745 30.00000000
407 136 2 0.42380000 32.35580000  55.09697745 30.00000000
408 136 2 0.42380000 33.86980000  55.09697745 30.00000000
409 137 1 -0.84760000 25.75440000  49.41302838 30.00000000
410 137 2 0.42380000 24.99740000  49.99892838 30.00000000
411 137 2 0.42380000 26.51140000  49.99892838 30.00000000
412 138 1 -0.84760000 13.49040000  57.06010198 30.00000000
413 138 2 0.42380000 12.73340000  57.64600198 30.00000000
414 138 2 0.42380000 14.24740000  57.64600198 30.00000000
415 139 1 -0.84760000 18.39600000  46.86400385 30.00000000
416 139 2 0.42380000 17.63900000  47.44990385 30.00000000
417 139 2 0.42380000 19.15300000  47.44990385 30.00000000
418 140 1 -0.84760000 1.22640000  8.62863586 30.00000000
419 140 2 0.42380000 0.46940000  9.21453586 30.00000000
420 140 2 0.42380000 1.98340000  9.21453586 30.00000000
421 141 1 -0.84760000 6.13200000  62.15815104 30.00000000
422 141 2 0.42380000 5.37500000  62.74405104 30.00000000
423 141 2 0.42380000 6.88900000  62.74405104 30.00000000
424 142 1 -0.84760000 18.39600000  34.11888119 30.00000000
425 142 2 0.42380000 17.63900000  34.70478119 30.00000000
426 142 2 0.42380000 19.15300000  34.70478119 30.00000000
427 143 1 -0.84760000 15.94320000  29.02083212 30.00000000
428 143 2 0.42380000 15.18620000  29.60673212 30.00000000
429 143 2 0.42380000 16.70020000  29.60673212 30.00000000
430 144 1 -0.84760000 18.39600000  3.53058680 30.00000000
431 144 2 0.42380000 17.63900000  4.11648680 30.00000000
432 144 2 0.42380000 19.15300000  4.11648680 30.00000000
433 145 1 -0.84760000 18.39600000  39.21693025 30.00000000
434 145 2 0.42380000 17.63900000  39.80283025 30.00000000
435 145 2 0.42380000 19.15300000  39.80283025 30.00000000
436 146 1 -0.84760000 30.66000000  36.66790572 30.00000000
437 146 2 0.42380000 29.90300000  37.25380572 30.00000000
438 146 2 0.42380000 31.41700000  37.25380572 30.00000000
439 147 1 -0.84760000 13.49040000  51.96205291 30.00000000
440 147 2 0.42380000 12.73340000  52.54795291 30.00000000
441 147 2 0.42380000 14.24740000  52.54795291 30.00000000
442 148 1 -0.84760000 20.84880000  26.47180759 30.00000000
443 148 2 0.42380000 20.09180000  27.05770759 30.00000000
444 148 2 0.42380000 21.60580000  27.05770759 30.00000000
445 149 1 -0.84760000 3.67920000  31.56985665 30.00000000
446 149 2 0.42380000 2.92220000  32.15575665 30.00000000
447 149 2 0.42380000 4.43620000  32.15575665 30.00000000
448 150 1 -0.84760000 33.11280000  39.21693025 30.00000000
449 150 2 0.42380000 32.35580000  39.80283025 30.00000000
450 150 2 0.42380000 33.86980000  39.80283025 30.00000000
451 151 1 -0.84760000 11.03760000  51.96205291 30.00000000
452 151 2 0.42380000 10.28060000  52.54795291 30.00000000
453 151 2 0.42380000 11.79460000  52.54795291 30.00000000
454 152 1 -0.84760000 28.20720000  46.86400385 30.00000000
455 152 2 0.42380000 27.45020000  47.44990385 30.00000000
456 152 2 0.42380000 28.96420000  47.44990385 30.00000000
457 153 1 -0.84760000 3.67920000  0.98156227 30.00000000
458 153 2 0.42380000 2.92220000  1.56746227 30.00000000
459 153 2 0.42380000 4.43620000  1.56746227 30.00000000
460 154 1 -0.84760000 3.67920000  54.51107745 30.00000000
461 154 2 0.42380000 2.92220000  55.09697745 30.00000000
462 154 2 0.42380000 4.43620000  55.09697745 30.00000000
463 155 1 -0.84760000 18.39600000  18.82473399 30.00000000
464 155 2 0.42380000 17.63900000  19.41063399 30.00000000
465 155 2 0.42380000 19.15300000  19.41063399 30.00000000
466 156 1 -0.84760000 8.58480000  8.62863586 30.00000000
467 156 2 0.42380000 7.82780000  9.21453586 30.00000000
468 156 2 0.42380000 9.34180000  9.21453586 30.00000000
469 157 1 -0.84760000 1.22640000  54.51107745 30.00000000
470 157 2 0.42380000 0.46940000  55.09697745 30.00000000
471 157 2 0.42380000 1.98340000  55.09697745 30.00000000
472 158 1 -0.84760000 11.03760000  8.62863586 30.00000000
473 158 2 0.42380000 10.28060000  9.21453586 30.00000000
474 158 2 0.42380000 11.79460000  9.21453586 30.00000000
475 159 1 -0.84760000 18.39600000  29.02083212 30.00000000
476 159 2 0.42380000 17.63900000  29.60673212 30.00000000
477 159 2 0.42380000 19.15300000  29.60673212 30.00000000
478 160 1 -0.84760000 18.39600000  62.15815104 30.00000000
479 160 2 0.42380000 17.63900000  62.74405104 30.00000000
480 160 2 0.42380000 19.15300000  62.74405104 30.00000000
481 161 1 -0.84760000 6.13200000  3.53058680 30.00000000
482 161 2 0.42380000 5.37500000  4.11648680 30.00000000
483 161 2 0.42380000 6.88900000  4.11648680 30.00000000
484 162 1 -0.84760000 35.56560000  49.41302838 30.00000000
485 162 2 0.42380000 34.80860000  49.99892838 30.00000000
486 162 2 0.42380000 36.32260000  49.99892838 30.00000000
487 163 1 -0.84760000 18.39600000  11.17766040 30.00000000
488 163 2 0.42380000 17.63900000  11.76356040 30.00000000
489 163 2 0.42380000 19.15300000  11.76356040 30.00000000
490 164 1 -0.84760000 15.94320000  57.06010198 30.00000000
491 164 2 0.42380000 15.18620000  57.64600198 30.00000000
492 164 2 0.42380000 16.70020000  57.64600198 30.00000000
493 165 1 -0.84760000 28.20720000  23.92278306 30.00000000
494 165 2 0.42380000 27.45020000  24.50868306 30.00000000
495 165 2 0.42380000 28.96420000  24.50868306 30.00000000
496 166 1 -0.84760000 33.11280000  8.62863586 30.00000000
497 166 2 0.42380000 32.35580000  9.21453586 30.00000000
498 166 2 0.42380000 33.86980000  9.21453586 30.00000000
499 167 1 -0.84760000 13.49040000  54.51107745 30.00000000
500 167 2 0.42380000 12.73340000  55.09697745 30.00000000
501 167 2 0.42380000 14.24740000  55.09697745 30.00000000
502 168 1 -0.84760000 11.03760000  36.66790572 30.00000000
503 168 2 0.42380000 10.28060000  37.25380572 30.00000000
504 168 2 0.42380000 11.79460000  37.25380572 30.00000000
505 169 1 -0.84760000 6.13200000  8.62863586 30.00000000
506 169 2 0.42380000 5.37500000  9.21453586 30.00000000
507 169 2 0.42380000 6.88900000  9.21453586 30.00000000
508 170 1 -0.84760000 11.03760000  39.21693025 30.00000000
509 170 2 0.42380000 10.28060000  39.80283025 30.00000000
510 170 2 0.42380000 11.79460000  39.80283025 30.00000000