********************************************************************************
*                       GENERAL UTILITY LATTICE PROGRAM                        *
*                                 Julian Gale                                  *
*                       Curtin Institute for Computation                       *
*                    School of Molecular and Life Sciences                     *
*                    Curtin University, Western Australia                      *
********************************************************************************
* Version = 6.1.2 * Last modified =   3rd November 2022                        *
********************************************************************************
*  single       - perform a single point run                                   *
*  conv         - constant volume calculation                                  *
*  noelectro    - do not include electrostatic terms despite charges present   *
*  qiterative   - use iterative solution of charges in ReaxFF / EEM / QEq      *
*  nosymmetry   - turn off symmetry after initial structure generation         *
*  full         - generate full unit cell when symmetry is removed             *
*  spatial      - use spatial decomposition algorithm                          *
********************************************************************************
* Preparing supercell for AgI (Hull, 1999)                                     *
********************************************************************************


  Job Started  at 20:14.38 31st October    2023                               

  Number of CPUs =     1

  Host name      = ip-172-31-18-205.ec2.internal           


  Total number of configurations input =      1

********************************************************************************
*  Input for Configuration =   1                                               *
********************************************************************************

  Formula = Ca200C200O600                                               

  Number of irreducible atoms/shells =    2600


  Total number atoms/shells =    2600

  Dimensionality = 3               :  Bulk   



  Supercell dimensions :  x =   5  y =   5  z =   4

  Cartesian lattice vectors (Angstroms) :

       20.650000    0.000000    0.000000
      -10.325000   17.883425    0.000000
        0.000000    0.000000   33.960000

  Cell parameters (Angstroms/Degrees):

  a =      20.6500    alpha =  90.0000
  b =      20.6500    beta  =  90.0000
  c =      33.9600    gamma = 120.0000

  Initial cell volume =       12541.180694 Angs**3

  Temperature of configuration =   0.00     K 

  Pressure of configuration =         0.000 GPa 

  Fractional coordinates of asymmetric unit :

--------------------------------------------------------------------------------
   No.  Atomic       x           y          z         Charge      Occupancy
        Label      (Frac)      (Frac)     (Frac)        (e)         (Frac)  
--------------------------------------------------------------------------------
      1 Ca    c    0.000000    0.000000    0.000000     0.00000    1.000000    
      2 Ca    c    0.000000    0.000000    0.250000     0.00000    1.000000    
      3 Ca    c    0.000000    0.000000    0.500000     0.00000    1.000000    
      4 Ca    c    0.000000    0.000000    0.750000     0.00000    1.000000    
      5 Ca    c    0.000000    0.200000    0.000000     0.00000    1.000000    
      6 Ca    c    0.000000    0.200000    0.250000     0.00000    1.000000    
      7 Ca    c    0.000000    0.200000    0.500000     0.00000    1.000000    
      8 Ca    c    0.000000    0.200000    0.750000     0.00000    1.000000    
      9 Ca    c    0.000000    0.400000    0.000000     0.00000    1.000000    
     10 Ca    c    0.000000    0.400000    0.250000     0.00000    1.000000    
     11 Ca    c    0.000000    0.400000    0.500000     0.00000    1.000000    
     12 Ca    c    0.000000    0.400000    0.750000     0.00000    1.000000    
     13 Ca    c    0.000000    0.600000    0.000000     0.00000    1.000000    
     14 Ca    c    0.000000    0.600000    0.250000     0.00000    1.000000    
     15 Ca    c    0.000000    0.600000    0.500000     0.00000    1.000000    
     16 Ca    c    0.000000    0.600000    0.750000     0.00000    1.000000    
     17 Ca    c    0.000000    0.800000    0.000000     0.00000    1.000000    
     18 Ca    c    0.000000    0.800000    0.250000     0.00000    1.000000    
     19 Ca    c    0.000000    0.800000    0.500000     0.00000    1.000000    
     20 Ca    c    0.000000    0.800000    0.750000     0.00000    1.000000    
     21 Ca    c    0.200000    0.000000    0.000000     0.00000    1.000000    
     22 Ca    c    0.200000    0.000000    0.250000     0.00000    1.000000    
     23 Ca    c    0.200000    0.000000    0.500000     0.00000    1.000000    
     24 Ca    c    0.200000    0.000000    0.750000     0.00000    1.000000    
     25 Ca    c    0.200000    0.200000    0.000000     0.00000    1.000000    
     26 Ca    c    0.200000    0.200000    0.250000     0.00000    1.000000    
     27 Ca    c    0.200000    0.200000    0.500000     0.00000    1.000000    
     28 Ca    c    0.200000    0.200000    0.750000     0.00000    1.000000    
     29 Ca    c    0.200000    0.400000    0.000000     0.00000    1.000000    
     30 Ca    c    0.200000    0.400000    0.250000     0.00000    1.000000    
     31 Ca    c    0.200000    0.400000    0.500000     0.00000    1.000000    
     32 Ca    c    0.200000    0.400000    0.750000     0.00000    1.000000    
     33 Ca    c    0.200000    0.600000    0.000000     0.00000    1.000000    
     34 Ca    c    0.200000    0.600000    0.250000     0.00000    1.000000    
     35 Ca    c    0.200000    0.600000    0.500000     0.00000    1.000000    
     36 Ca    c    0.200000    0.600000    0.750000     0.00000    1.000000    
     37 Ca    c    0.200000    0.800000    0.000000     0.00000    1.000000    
     38 Ca    c    0.200000    0.800000    0.250000     0.00000    1.000000    
     39 Ca    c    0.200000    0.800000    0.500000     0.00000    1.000000    
     40 Ca    c    0.200000    0.800000    0.750000     0.00000    1.000000    
     41 Ca    c    0.400000    0.000000    0.000000     0.00000    1.000000    
     42 Ca    c    0.400000    0.000000    0.250000     0.00000    1.000000    
     43 Ca    c    0.400000    0.000000    0.500000     0.00000    1.000000    
     44 Ca    c    0.400000    0.000000    0.750000     0.00000    1.000000    
     45 Ca    c    0.400000    0.200000    0.000000     0.00000    1.000000    
     46 Ca    c    0.400000    0.200000    0.250000     0.00000    1.000000    
     47 Ca    c    0.400000    0.200000    0.500000     0.00000    1.000000    
     48 Ca    c    0.400000    0.200000    0.750000     0.00000    1.000000    
     49 Ca    c    0.400000    0.400000    0.000000     0.00000    1.000000    
     50 Ca    c    0.400000    0.400000    0.250000     0.00000    1.000000    
     51 Ca    c    0.400000    0.400000    0.500000     0.00000    1.000000    
     52 Ca    c    0.400000    0.400000    0.750000     0.00000    1.000000    
     53 Ca    c    0.400000    0.600000    0.000000     0.00000    1.000000    
     54 Ca    c    0.400000    0.600000    0.250000     0.00000    1.000000    
     55 Ca    c    0.400000    0.600000    0.500000     0.00000    1.000000    
     56 Ca    c    0.400000    0.600000    0.750000     0.00000    1.000000    
     57 Ca    c    0.400000    0.800000    0.000000     0.00000    1.000000    
     58 Ca    c    0.400000    0.800000    0.250000     0.00000    1.000000    
     59 Ca    c    0.400000    0.800000    0.500000     0.00000    1.000000    
     60 Ca    c    0.400000    0.800000    0.750000     0.00000    1.000000    
     61 Ca    c    0.600000    0.000000    0.000000     0.00000    1.000000    
     62 Ca    c    0.600000    0.000000    0.250000     0.00000    1.000000    
     63 Ca    c    0.600000    0.000000    0.500000     0.00000    1.000000    
     64 Ca    c    0.600000    0.000000    0.750000     0.00000    1.000000    
     65 Ca    c    0.600000    0.200000    0.000000     0.00000    1.000000    
     66 Ca    c    0.600000    0.200000    0.250000     0.00000    1.000000    
     67 Ca    c    0.600000    0.200000    0.500000     0.00000    1.000000    
     68 Ca    c    0.600000    0.200000    0.750000     0.00000    1.000000    
     69 Ca    c    0.600000    0.400000    0.000000     0.00000    1.000000    
     70 Ca    c    0.600000    0.400000    0.250000     0.00000    1.000000    
     71 Ca    c    0.600000    0.400000    0.500000     0.00000    1.000000    
     72 Ca    c    0.600000    0.400000    0.750000     0.00000    1.000000    
     73 Ca    c    0.600000    0.600000    0.000000     0.00000    1.000000    
     74 Ca    c    0.600000    0.600000    0.250000     0.00000    1.000000    
     75 Ca    c    0.600000    0.600000    0.500000     0.00000    1.000000    
     76 Ca    c    0.600000    0.600000    0.750000     0.00000    1.000000    
     77 Ca    c    0.600000    0.800000    0.000000     0.00000    1.000000    
     78 Ca    c    0.600000    0.800000    0.250000     0.00000    1.000000    
     79 Ca    c    0.600000    0.800000    0.500000     0.00000    1.000000    
     80 Ca    c    0.600000    0.800000    0.750000     0.00000    1.000000    
     81 Ca    c    0.800000    0.000000    0.000000     0.00000    1.000000    
     82 Ca    c    0.800000    0.000000    0.250000     0.00000    1.000000    
     83 Ca    c    0.800000    0.000000    0.500000     0.00000    1.000000    
     84 Ca    c    0.800000    0.000000    0.750000     0.00000    1.000000    
     85 Ca    c    0.800000    0.200000    0.000000     0.00000    1.000000    
     86 Ca    c    0.800000    0.200000    0.250000     0.00000    1.000000    
     87 Ca    c    0.800000    0.200000    0.500000     0.00000    1.000000    
     88 Ca    c    0.800000    0.200000    0.750000     0.00000    1.000000    
     89 Ca    c    0.800000    0.400000    0.000000     0.00000    1.000000    
     90 Ca    c    0.800000    0.400000    0.250000     0.00000    1.000000    
     91 Ca    c    0.800000    0.400000    0.500000     0.00000    1.000000    
     92 Ca    c    0.800000    0.400000    0.750000     0.00000    1.000000    
     93 Ca    c    0.800000    0.600000    0.000000     0.00000    1.000000    
     94 Ca    c    0.800000    0.600000    0.250000     0.00000    1.000000    
     95 Ca    c    0.800000    0.600000    0.500000     0.00000    1.000000    
     96 Ca    c    0.800000    0.600000    0.750000     0.00000    1.000000    
     97 Ca    c    0.800000    0.800000    0.000000     0.00000    1.000000    
     98 Ca    c    0.800000    0.800000    0.250000     0.00000    1.000000    
     99 Ca    c    0.800000    0.800000    0.500000     0.00000    1.000000    
    100 Ca    c    0.800000    0.800000    0.750000     0.00000    1.000000    
    101 Ca    c    0.000000    0.000000    0.125000     0.00000    1.000000    
    102 Ca    c    0.000000    0.000000    0.375000     0.00000    1.000000    
    103 Ca    c    0.000000    0.000000    0.625000     0.00000    1.000000    
    104 Ca    c    0.000000    0.000000    0.875000     0.00000    1.000000    
    105 Ca    c    0.000000    0.200000    0.125000     0.00000    1.000000    
    106 Ca    c    0.000000    0.200000    0.375000     0.00000    1.000000    
    107 Ca    c    0.000000    0.200000    0.625000     0.00000    1.000000    
    108 Ca    c    0.000000    0.200000    0.875000     0.00000    1.000000    
    109 Ca    c    0.000000    0.400000    0.125000     0.00000    1.000000    
    110 Ca    c    0.000000    0.400000    0.375000     0.00000    1.000000    
    111 Ca    c    0.000000    0.400000    0.625000     0.00000    1.000000    
    112 Ca    c    0.000000    0.400000    0.875000     0.00000    1.000000    
    113 Ca    c    0.000000    0.600000    0.125000     0.00000    1.000000    
    114 Ca    c    0.000000    0.600000    0.375000     0.00000    1.000000    
    115 Ca    c    0.000000    0.600000    0.625000     0.00000    1.000000    
    116 Ca    c    0.000000    0.600000    0.875000     0.00000    1.000000    
    117 Ca    c    0.000000    0.800000    0.125000     0.00000    1.000000    
    118 Ca    c    0.000000    0.800000    0.375000     0.00000    1.000000    
    119 Ca    c    0.000000    0.800000    0.625000     0.00000    1.000000    
    120 Ca    c    0.000000    0.800000    0.875000     0.00000    1.000000    
    121 Ca    c    0.200000    0.000000    0.125000     0.00000    1.000000    
    122 Ca    c    0.200000    0.000000    0.375000     0.00000    1.000000    
    123 Ca    c    0.200000    0.000000    0.625000     0.00000    1.000000    
    124 Ca    c    0.200000    0.000000    0.875000     0.00000    1.000000    
    125 Ca    c    0.200000    0.200000    0.125000     0.00000    1.000000    
    126 Ca    c    0.200000    0.200000    0.375000     0.00000    1.000000    
    127 Ca    c    0.200000    0.200000    0.625000     0.00000    1.000000    
    128 Ca    c    0.200000    0.200000    0.875000     0.00000    1.000000    
    129 Ca    c    0.200000    0.400000    0.125000     0.00000    1.000000    
    130 Ca    c    0.200000    0.400000    0.375000     0.00000    1.000000    
    131 Ca    c    0.200000    0.400000    0.625000     0.00000    1.000000    
    132 Ca    c    0.200000    0.400000    0.875000     0.00000    1.000000    
    133 Ca    c    0.200000    0.600000    0.125000     0.00000    1.000000    
    134 Ca    c    0.200000    0.600000    0.375000     0.00000    1.000000    
    135 Ca    c    0.200000    0.600000    0.625000     0.00000    1.000000    
    136 Ca    c    0.200000    0.600000    0.875000     0.00000    1.000000    
    137 Ca    c    0.200000    0.800000    0.125000     0.00000    1.000000    
    138 Ca    c    0.200000    0.800000    0.375000     0.00000    1.000000    
    139 Ca    c    0.200000    0.800000    0.625000     0.00000    1.000000    
    140 Ca    c    0.200000    0.800000    0.875000     0.00000    1.000000    
    141 Ca    c    0.400000    0.000000    0.125000     0.00000    1.000000    
    142 Ca    c    0.400000    0.000000    0.375000     0.00000    1.000000    
    143 Ca    c    0.400000    0.000000    0.625000     0.00000    1.000000    
    144 Ca    c    0.400000    0.000000    0.875000     0.00000    1.000000    
    145 Ca    c    0.400000    0.200000    0.125000     0.00000    1.000000    
    146 Ca    c    0.400000    0.200000    0.375000     0.00000    1.000000    
    147 Ca    c    0.400000    0.200000    0.625000     0.00000    1.000000    
    148 Ca    c    0.400000    0.200000    0.875000     0.00000    1.000000    
    149 Ca    c    0.400000    0.400000    0.125000     0.00000    1.000000    
    150 Ca    c    0.400000    0.400000    0.375000     0.00000    1.000000    
    151 Ca    c    0.400000    0.400000    0.625000     0.00000    1.000000    
    152 Ca    c    0.400000    0.400000    0.875000     0.00000    1.000000    
    153 Ca    c    0.400000    0.600000    0.125000     0.00000    1.000000    
    154 Ca    c    0.400000    0.600000    0.375000     0.00000    1.000000    
    155 Ca    c    0.400000    0.600000    0.625000     0.00000    1.000000    
    156 Ca    c    0.400000    0.600000    0.875000     0.00000    1.000000    
    157 Ca    c    0.400000    0.800000    0.125000     0.00000    1.000000    
    158 Ca    c    0.400000    0.800000    0.375000     0.00000    1.000000    
    159 Ca    c    0.400000    0.800000    0.625000     0.00000    1.000000    
    160 Ca    c    0.400000    0.800000    0.875000     0.00000    1.000000    
    161 Ca    c    0.600000    0.000000    0.125000     0.00000    1.000000    
    162 Ca    c    0.600000    0.000000    0.375000     0.00000    1.000000    
    163 Ca    c    0.600000    0.000000    0.625000     0.00000    1.000000    
    164 Ca    c    0.600000    0.000000    0.875000     0.00000    1.000000    
    165 Ca    c    0.600000    0.200000    0.125000     0.00000    1.000000    
    166 Ca    c    0.600000    0.200000    0.375000     0.00000    1.000000    
    167 Ca    c    0.600000    0.200000    0.625000     0.00000    1.000000    
    168 Ca    c    0.600000    0.200000    0.875000     0.00000    1.000000    
    169 Ca    c    0.600000    0.400000    0.125000     0.00000    1.000000    
    170 Ca    c    0.600000    0.400000    0.375000     0.00000    1.000000    
    171 Ca    c    0.600000    0.400000    0.625000     0.00000    1.000000    
    172 Ca    c    0.600000    0.400000    0.875000     0.00000    1.000000    
    173 Ca    c    0.600000    0.600000    0.125000     0.00000    1.000000    
    174 Ca    c    0.600000    0.600000    0.375000     0.00000    1.000000    
    175 Ca    c    0.600000    0.600000    0.625000     0.00000    1.000000    
    176 Ca    c    0.600000    0.600000    0.875000     0.00000    1.000000    
    177 Ca    c    0.600000    0.800000    0.125000     0.00000    1.000000    
    178 Ca    c    0.600000    0.800000    0.375000     0.00000    1.000000    
    179 Ca    c    0.600000    0.800000    0.625000     0.00000    1.000000    
    180 Ca    c    0.600000    0.800000    0.875000     0.00000    1.000000    
    181 Ca    c    0.800000    0.000000    0.125000     0.00000    1.000000    
    182 Ca    c    0.800000    0.000000    0.375000     0.00000    1.000000    
    183 Ca    c    0.800000    0.000000    0.625000     0.00000    1.000000    
    184 Ca    c    0.800000    0.000000    0.875000     0.00000    1.000000    
    185 Ca    c    0.800000    0.200000    0.125000     0.00000    1.000000    
    186 Ca    c    0.800000    0.200000    0.375000     0.00000    1.000000    
    187 Ca    c    0.800000    0.200000    0.625000     0.00000    1.000000    
    188 Ca    c    0.800000    0.200000    0.875000     0.00000    1.000000    
    189 Ca    c    0.800000    0.400000    0.125000     0.00000    1.000000    
    190 Ca    c    0.800000    0.400000    0.375000     0.00000    1.000000    
    191 Ca    c    0.800000    0.400000    0.625000     0.00000    1.000000    
    192 Ca    c    0.800000    0.400000    0.875000     0.00000    1.000000    
    193 Ca    c    0.800000    0.600000    0.125000     0.00000    1.000000    
    194 Ca    c    0.800000    0.600000    0.375000     0.00000    1.000000    
    195 Ca    c    0.800000    0.600000    0.625000     0.00000    1.000000    
    196 Ca    c    0.800000    0.600000    0.875000     0.00000    1.000000    
    197 Ca    c    0.800000    0.800000    0.125000     0.00000    1.000000    
    198 Ca    c    0.800000    0.800000    0.375000     0.00000    1.000000    
    199 Ca    c    0.800000    0.800000    0.625000     0.00000    1.000000    
    200 Ca    c    0.800000    0.800000    0.875000     0.00000    1.000000    
    201 C     c    0.058000    0.116000    0.062500     0.00000    0.333333    
    202 C     c    0.058000    0.116000    0.312500     0.00000    0.333333    
    203 C     c    0.058000    0.116000    0.562500     0.00000    0.333333    
    204 C     c    0.058000    0.116000    0.812500     0.00000    0.333333    
    205 C     c    0.058000    0.316000    0.062500     0.00000    0.333333    
    206 C     c    0.058000    0.316000    0.312500     0.00000    0.333333    
    207 C     c    0.058000    0.316000    0.562500     0.00000    0.333333    
    208 C     c    0.058000    0.316000    0.812500     0.00000    0.333333    
    209 C     c    0.058000    0.516000    0.062500     0.00000    0.333333    
    210 C     c    0.058000    0.516000    0.312500     0.00000    0.333333    
    211 C     c    0.058000    0.516000    0.562500     0.00000    0.333333    
    212 C     c    0.058000    0.516000    0.812500     0.00000    0.333333    
    213 C     c    0.058000    0.716000    0.062500     0.00000    0.333333    
    214 C     c    0.058000    0.716000    0.312500     0.00000    0.333333    
    215 C     c    0.058000    0.716000    0.562500     0.00000    0.333333    
    216 C     c    0.058000    0.716000    0.812500     0.00000    0.333333    
    217 C     c    0.058000    0.916000    0.062500     0.00000    0.333333    
    218 C     c    0.058000    0.916000    0.312500     0.00000    0.333333    
    219 C     c    0.058000    0.916000    0.562500     0.00000    0.333333    
    220 C     c    0.058000    0.916000    0.812500     0.00000    0.333333    
    221 C     c    0.258000    0.116000    0.062500     0.00000    0.333333    
    222 C     c    0.258000    0.116000    0.312500     0.00000    0.333333    
    223 C     c    0.258000    0.116000    0.562500     0.00000    0.333333    
    224 C     c    0.258000    0.116000    0.812500     0.00000    0.333333    
    225 C     c    0.258000    0.316000    0.062500     0.00000    0.333333    
    226 C     c    0.258000    0.316000    0.312500     0.00000    0.333333    
    227 C     c    0.258000    0.316000    0.562500     0.00000    0.333333    
    228 C     c    0.258000    0.316000    0.812500     0.00000    0.333333    
    229 C     c    0.258000    0.516000    0.062500     0.00000    0.333333    
    230 C     c    0.258000    0.516000    0.312500     0.00000    0.333333    
    231 C     c    0.258000    0.516000    0.562500     0.00000    0.333333    
    232 C     c    0.258000    0.516000    0.812500     0.00000    0.333333    
    233 C     c    0.258000    0.716000    0.062500     0.00000    0.333333    
    234 C     c    0.258000    0.716000    0.312500     0.00000    0.333333    
    235 C     c    0.258000    0.716000    0.562500     0.00000    0.333333    
    236 C     c    0.258000    0.716000    0.812500     0.00000    0.333333    
    237 C     c    0.258000    0.916000    0.062500     0.00000    0.333333    
    238 C     c    0.258000    0.916000    0.312500     0.00000    0.333333    
    239 C     c    0.258000    0.916000    0.562500     0.00000    0.333333    
    240 C     c    0.258000    0.916000    0.812500     0.00000    0.333333    
    241 C     c    0.458000    0.116000    0.062500     0.00000    0.333333    
    242 C     c    0.458000    0.116000    0.312500     0.00000    0.333333    
    243 C     c    0.458000    0.116000    0.562500     0.00000    0.333333    
    244 C     c    0.458000    0.116000    0.812500     0.00000    0.333333    
    245 C     c    0.458000    0.316000    0.062500     0.00000    0.333333    
    246 C     c    0.458000    0.316000    0.312500     0.00000    0.333333    
    247 C     c    0.458000    0.316000    0.562500     0.00000    0.333333    
    248 C     c    0.458000    0.316000    0.812500     0.00000    0.333333    
    249 C     c    0.458000    0.516000    0.062500     0.00000    0.333333    
    250 C     c    0.458000    0.516000    0.312500     0.00000    0.333333    
    251 C     c    0.458000    0.516000    0.562500     0.00000    0.333333    
    252 C     c    0.458000    0.516000    0.812500     0.00000    0.333333    
    253 C     c    0.458000    0.716000    0.062500     0.00000    0.333333    
    254 C     c    0.458000    0.716000    0.312500     0.00000    0.333333    
    255 C     c    0.458000    0.716000    0.562500     0.00000    0.333333    
    256 C     c    0.458000    0.716000    0.812500     0.00000    0.333333    
    257 C     c    0.458000    0.916000    0.062500     0.00000    0.333333    
    258 C     c    0.458000    0.916000    0.312500     0.00000    0.333333    
    259 C     c    0.458000    0.916000    0.562500     0.00000    0.333333    
    260 C     c    0.458000    0.916000    0.812500     0.00000    0.333333    
    261 C     c    0.658000    0.116000    0.062500     0.00000    0.333333    
    262 C     c    0.658000    0.116000    0.312500     0.00000    0.333333    
    263 C     c    0.658000    0.116000    0.562500     0.00000    0.333333    
    264 C     c    0.658000    0.116000    0.812500     0.00000    0.333333    
    265 C     c    0.658000    0.316000    0.062500     0.00000    0.333333    
    266 C     c    0.658000    0.316000    0.312500     0.00000    0.333333    
    267 C     c    0.658000    0.316000    0.562500     0.00000    0.333333    
    268 C     c    0.658000    0.316000    0.812500     0.00000    0.333333    
    269 C     c    0.658000    0.516000    0.062500     0.00000    0.333333    
    270 C     c    0.658000    0.516000    0.312500     0.00000    0.333333    
    271 C     c    0.658000    0.516000    0.562500     0.00000    0.333333    
    272 C     c    0.658000    0.516000    0.812500     0.00000    0.333333    
    273 C     c    0.658000    0.716000    0.062500     0.00000    0.333333    
    274 C     c    0.658000    0.716000    0.312500     0.00000    0.333333    
    275 C     c    0.658000    0.716000    0.562500     0.00000    0.333333    
    276 C     c    0.658000    0.716000    0.812500     0.00000    0.333333    
    277 C     c    0.658000    0.916000    0.062500     0.00000    0.333333    
    278 C     c    0.658000    0.916000    0.312500     0.00000    0.333333    
    279 C     c    0.658000    0.916000    0.562500     0.00000    0.333333    
    280 C     c    0.658000    0.916000    0.812500     0.00000    0.333333    
    281 C     c    0.858000    0.116000    0.062500     0.00000    0.333333    
    282 C     c    0.858000    0.116000    0.312500     0.00000    0.333333    
    283 C     c    0.858000    0.116000    0.562500     0.00000    0.333333    
    284 C     c    0.858000    0.116000    0.812500     0.00000    0.333333    
    285 C     c    0.858000    0.316000    0.062500     0.00000    0.333333    
    286 C     c    0.858000    0.316000    0.312500     0.00000    0.333333    
    287 C     c    0.858000    0.316000    0.562500     0.00000    0.333333    
    288 C     c    0.858000    0.316000    0.812500     0.00000    0.333333    
    289 C     c    0.858000    0.516000    0.062500     0.00000    0.333333    
    290 C     c    0.858000    0.516000    0.312500     0.00000    0.333333    
    291 C     c    0.858000    0.516000    0.562500     0.00000    0.333333    
    292 C     c    0.858000    0.516000    0.812500     0.00000    0.333333    
    293 C     c    0.858000    0.716000    0.062500     0.00000    0.333333    
    294 C     c    0.858000    0.716000    0.312500     0.00000    0.333333    
    295 C     c    0.858000    0.716000    0.562500     0.00000    0.333333    
    296 C     c    0.858000    0.716000    0.812500     0.00000    0.333333    
    297 C     c    0.858000    0.916000    0.062500     0.00000    0.333333    
    298 C     c    0.858000    0.916000    0.312500     0.00000    0.333333    
    299 C     c    0.858000    0.916000    0.562500     0.00000    0.333333    
    300 C     c    0.858000    0.916000    0.812500     0.00000    0.333333    
    301 C     c    0.142000    0.084000    0.187500     0.00000    0.333333    
    302 C     c    0.142000    0.084000    0.437500     0.00000    0.333333    
    303 C     c    0.142000    0.084000    0.687500     0.00000    0.333333    
    304 C     c    0.142000    0.084000    0.937500     0.00000    0.333333    
    305 C     c    0.142000    0.284000    0.187500     0.00000    0.333333    
    306 C     c    0.142000    0.284000    0.437500     0.00000    0.333333    
    307 C     c    0.142000    0.284000    0.687500     0.00000    0.333333    
    308 C     c    0.142000    0.284000    0.937500     0.00000    0.333333    
    309 C     c    0.142000    0.484000    0.187500     0.00000    0.333333    
    310 C     c    0.142000    0.484000    0.437500     0.00000    0.333333    
    311 C     c    0.142000    0.484000    0.687500     0.00000    0.333333    
    312 C     c    0.142000    0.484000    0.937500     0.00000    0.333333    
    313 C     c    0.142000    0.684000    0.187500     0.00000    0.333333    
    314 C     c    0.142000    0.684000    0.437500     0.00000    0.333333    
    315 C     c    0.142000    0.684000    0.687500     0.00000    0.333333    
    316 C     c    0.142000    0.684000    0.937500     0.00000    0.333333    
    317 C     c    0.142000    0.884000    0.187500     0.00000    0.333333    
    318 C     c    0.142000    0.884000    0.437500     0.00000    0.333333    
    319 C     c    0.142000    0.884000    0.687500     0.00000    0.333333    
    320 C     c    0.142000    0.884000    0.937500     0.00000    0.333333    
    321 C     c    0.342000    0.084000    0.187500     0.00000    0.333333    
    322 C     c    0.342000    0.084000    0.437500     0.00000    0.333333    
    323 C     c    0.342000    0.084000    0.687500     0.00000    0.333333    
    324 C     c    0.342000    0.084000    0.937500     0.00000    0.333333    
    325 C     c    0.342000    0.284000    0.187500     0.00000    0.333333    
    326 C     c    0.342000    0.284000    0.437500     0.00000    0.333333    
    327 C     c    0.342000    0.284000    0.687500     0.00000    0.333333    
    328 C     c    0.342000    0.284000    0.937500     0.00000    0.333333    
    329 C     c    0.342000    0.484000    0.187500     0.00000    0.333333    
    330 C     c    0.342000    0.484000    0.437500     0.00000    0.333333    
    331 C     c    0.342000    0.484000    0.687500     0.00000    0.333333    
    332 C     c    0.342000    0.484000    0.937500     0.00000    0.333333    
    333 C     c    0.342000    0.684000    0.187500     0.00000    0.333333    
    334 C     c    0.342000    0.684000    0.437500     0.00000    0.333333    
    335 C     c    0.342000    0.684000    0.687500     0.00000    0.333333    
    336 C     c    0.342000    0.684000    0.937500     0.00000    0.333333    
    337 C     c    0.342000    0.884000    0.187500     0.00000    0.333333    
    338 C     c    0.342000    0.884000    0.437500     0.00000    0.333333    
    339 C     c    0.342000    0.884000    0.687500     0.00000    0.333333    
    340 C     c    0.342000    0.884000    0.937500     0.00000    0.333333    
    341 C     c    0.542000    0.084000    0.187500     0.00000    0.333333    
    342 C     c    0.542000    0.084000    0.437500     0.00000    0.333333    
    343 C     c    0.542000    0.084000    0.687500     0.00000    0.333333    
    344 C     c    0.542000    0.084000    0.937500     0.00000    0.333333    
    345 C     c    0.542000    0.284000    0.187500     0.00000    0.333333    
    346 C     c    0.542000    0.284000    0.437500     0.00000    0.333333    
    347 C     c    0.542000    0.284000    0.687500     0.00000    0.333333    
    348 C     c    0.542000    0.284000    0.937500     0.00000    0.333333    
    349 C     c    0.542000    0.484000    0.187500     0.00000    0.333333    
    350 C     c    0.542000    0.484000    0.437500     0.00000    0.333333    
    351 C     c    0.542000    0.484000    0.687500     0.00000    0.333333    
    352 C     c    0.542000    0.484000    0.937500     0.00000    0.333333    
    353 C     c    0.542000    0.684000    0.187500     0.00000    0.333333    
    354 C     c    0.542000    0.684000    0.437500     0.00000    0.333333    
    355 C     c    0.542000    0.684000    0.687500     0.00000    0.333333    
    356 C     c    0.542000    0.684000    0.937500     0.00000    0.333333    
    357 C     c    0.542000    0.884000    0.187500     0.00000    0.333333    
    358 C     c    0.542000    0.884000    0.437500     0.00000    0.333333    
    359 C     c    0.542000    0.884000    0.687500     0.00000    0.333333    
    360 C     c    0.542000    0.884000    0.937500     0.00000    0.333333    
    361 C     c    0.742000    0.084000    0.187500     0.00000    0.333333    
    362 C     c    0.742000    0.084000    0.437500     0.00000    0.333333    
    363 C     c    0.742000    0.084000    0.687500     0.00000    0.333333    
    364 C     c    0.742000    0.084000    0.937500     0.00000    0.333333    
    365 C     c    0.742000    0.284000    0.187500     0.00000    0.333333    
    366 C     c    0.742000    0.284000    0.437500     0.00000    0.333333    
    367 C     c    0.742000    0.284000    0.687500     0.00000    0.333333    
    368 C     c    0.742000    0.284000    0.937500     0.00000    0.333333    
    369 C     c    0.742000    0.484000    0.187500     0.00000    0.333333    
    370 C     c    0.742000    0.484000    0.437500     0.00000    0.333333    
    371 C     c    0.742000    0.484000    0.687500     0.00000    0.333333    
    372 C     c    0.742000    0.484000    0.937500     0.00000    0.333333    
    373 C     c    0.742000    0.684000    0.187500     0.00000    0.333333    
    374 C     c    0.742000    0.684000    0.437500     0.00000    0.333333    
    375 C     c    0.742000    0.684000    0.687500     0.00000    0.333333    
    376 C     c    0.742000    0.684000    0.937500     0.00000    0.333333    
    377 C     c    0.742000    0.884000    0.187500     0.00000    0.333333    
    378 C     c    0.742000    0.884000    0.437500     0.00000    0.333333    
    379 C     c    0.742000    0.884000    0.687500     0.00000    0.333333    
    380 C     c    0.742000    0.884000    0.937500     0.00000    0.333333    
    381 C     c    0.942000    0.084000    0.187500     0.00000    0.333333    
    382 C     c    0.942000    0.084000    0.437500     0.00000    0.333333    
    383 C     c    0.942000    0.084000    0.687500     0.00000    0.333333    
    384 C     c    0.942000    0.084000    0.937500     0.00000    0.333333    
    385 C     c    0.942000    0.284000    0.187500     0.00000    0.333333    
    386 C     c    0.942000    0.284000    0.437500     0.00000    0.333333    
    387 C     c    0.942000    0.284000    0.687500     0.00000    0.333333    
    388 C     c    0.942000    0.284000    0.937500     0.00000    0.333333    
    389 C     c    0.942000    0.484000    0.187500     0.00000    0.333333    
    390 C     c    0.942000    0.484000    0.437500     0.00000    0.333333    
    391 C     c    0.942000    0.484000    0.687500     0.00000    0.333333    
    392 C     c    0.942000    0.484000    0.937500     0.00000    0.333333    
    393 C     c    0.942000    0.684000    0.187500     0.00000    0.333333    
    394 C     c    0.942000    0.684000    0.437500     0.00000    0.333333    
    395 C     c    0.942000    0.684000    0.687500     0.00000    0.333333    
    396 C     c    0.942000    0.684000    0.937500     0.00000    0.333333    
    397 C     c    0.942000    0.884000    0.187500     0.00000    0.333333    
    398 C     c    0.942000    0.884000    0.437500     0.00000    0.333333    
    399 C     c    0.942000    0.884000    0.687500     0.00000    0.333333    
    400 C     c    0.942000    0.884000    0.937500     0.00000    0.333333    
    401 C     c    0.084000    0.142000    0.062500     0.00000    0.333333    
    402 C     c    0.084000    0.142000    0.312500     0.00000    0.333333    
    403 C     c    0.084000    0.142000    0.562500     0.00000    0.333333    
    404 C     c    0.084000    0.142000    0.812500     0.00000    0.333333    
    405 C     c    0.084000    0.342000    0.062500     0.00000    0.333333    
    406 C     c    0.084000    0.342000    0.312500     0.00000    0.333333    
    407 C     c    0.084000    0.342000    0.562500     0.00000    0.333333    
    408 C     c    0.084000    0.342000    0.812500     0.00000    0.333333    
    409 C     c    0.084000    0.542000    0.062500     0.00000    0.333333    
    410 C     c    0.084000    0.542000    0.312500     0.00000    0.333333    
    411 C     c    0.084000    0.542000    0.562500     0.00000    0.333333    
    412 C     c    0.084000    0.542000    0.812500     0.00000    0.333333    
    413 C     c    0.084000    0.742000    0.062500     0.00000    0.333333    
    414 C     c    0.084000    0.742000    0.312500     0.00000    0.333333    
    415 C     c    0.084000    0.742000    0.562500     0.00000    0.333333    
    416 C     c    0.084000    0.742000    0.812500     0.00000    0.333333    
    417 C     c    0.084000    0.942000    0.062500     0.00000    0.333333    
    418 C     c    0.084000    0.942000    0.312500     0.00000    0.333333    
    419 C     c    0.084000    0.942000    0.562500     0.00000    0.333333    
    420 C     c    0.084000    0.942000    0.812500     0.00000    0.333333    
    421 C     c    0.284000    0.142000    0.062500     0.00000    0.333333    
    422 C     c    0.284000    0.142000    0.312500     0.00000    0.333333    
    423 C     c    0.284000    0.142000    0.562500     0.00000    0.333333    
    424 C     c    0.284000    0.142000    0.812500     0.00000    0.333333    
    425 C     c    0.284000    0.342000    0.062500     0.00000    0.333333    
    426 C     c    0.284000    0.342000    0.312500     0.00000    0.333333    
    427 C     c    0.284000    0.342000    0.562500     0.00000    0.333333    
    428 C     c    0.284000    0.342000    0.812500     0.00000    0.333333    
    429 C     c    0.284000    0.542000    0.062500     0.00000    0.333333    
    430 C     c    0.284000    0.542000    0.312500     0.00000    0.333333    
    431 C     c    0.284000    0.542000    0.562500     0.00000    0.333333    
    432 C     c    0.284000    0.542000    0.812500     0.00000    0.333333    
    433 C     c    0.284000    0.742000    0.062500     0.00000    0.333333    
    434 C     c    0.284000    0.742000    0.312500     0.00000    0.333333    
    435 C     c    0.284000    0.742000    0.562500     0.00000    0.333333    
    436 C     c    0.284000    0.742000    0.812500     0.00000    0.333333    
    437 C     c    0.284000    0.942000    0.062500     0.00000    0.333333    
    438 C     c    0.284000    0.942000    0.312500     0.00000    0.333333    
    439 C     c    0.284000    0.942000    0.562500     0.00000    0.333333    
    440 C     c    0.284000    0.942000    0.812500     0.00000    0.333333    
    441 C     c    0.484000    0.142000    0.062500     0.00000    0.333333    
    442 C     c    0.484000    0.142000    0.312500     0.00000    0.333333    
    443 C     c    0.484000    0.142000    0.562500     0.00000    0.333333    
    444 C     c    0.484000    0.142000    0.812500     0.00000    0.333333    
    445 C     c    0.484000    0.342000    0.062500     0.00000    0.333333    
    446 C     c    0.484000    0.342000    0.312500     0.00000    0.333333    
    447 C     c    0.484000    0.342000    0.562500     0.00000    0.333333    
    448 C     c    0.484000    0.342000    0.812500     0.00000    0.333333    
    449 C     c    0.484000    0.542000    0.062500     0.00000    0.333333    
    450 C     c    0.484000    0.542000    0.312500     0.00000    0.333333    
    451 C     c    0.484000    0.542000    0.562500     0.00000    0.333333    
    452 C     c    0.484000    0.542000    0.812500     0.00000    0.333333    
    453 C     c    0.484000    0.742000    0.062500     0.00000    0.333333    
    454 C     c    0.484000    0.742000    0.312500     0.00000    0.333333    
    455 C     c    0.484000    0.742000    0.562500     0.00000    0.333333    
    456 C     c    0.484000    0.742000    0.812500     0.00000    0.333333    
    457 C     c    0.484000    0.942000    0.062500     0.00000    0.333333    
    458 C     c    0.484000    0.942000    0.312500     0.00000    0.333333    
    459 C     c    0.484000    0.942000    0.562500     0.00000    0.333333    
    460 C     c    0.484000    0.942000    0.812500     0.00000    0.333333    
    461 C     c    0.684000    0.142000    0.062500     0.00000    0.333333    
    462 C     c    0.684000    0.142000    0.312500     0.00000    0.333333    
    463 C     c    0.684000    0.142000    0.562500     0.00000    0.333333    
    464 C     c    0.684000    0.142000    0.812500     0.00000    0.333333    
    465 C     c    0.684000    0.342000    0.062500     0.00000    0.333333    
    466 C     c    0.684000    0.342000    0.312500     0.00000    0.333333    
    467 C     c    0.684000    0.342000    0.562500     0.00000    0.333333    
    468 C     c    0.684000    0.342000    0.812500     0.00000    0.333333    
    469 C     c    0.684000    0.542000    0.062500     0.00000    0.333333    
    470 C     c    0.684000    0.542000    0.312500     0.00000    0.333333    
    471 C     c    0.684000    0.542000    0.562500     0.00000    0.333333    
    472 C     c    0.684000    0.542000    0.812500     0.00000    0.333333    
    473 C     c    0.684000    0.742000    0.062500     0.00000    0.333333    
    474 C     c    0.684000    0.742000    0.312500     0.00000    0.333333    
    475 C     c    0.684000    0.742000    0.562500     0.00000    0.333333    
    476 C     c    0.684000    0.742000    0.812500     0.00000    0.333333    
    477 C     c    0.684000    0.942000    0.062500     0.00000    0.333333    
    478 C     c    0.684000    0.942000    0.312500     0.00000    0.333333    
    479 C     c    0.684000    0.942000    0.562500     0.00000    0.333333    
    480 C     c    0.684000    0.942000    0.812500     0.00000    0.333333    
    481 C     c    0.884000    0.142000    0.062500     0.00000    0.333333    
    482 C     c    0.884000    0.142000    0.312500     0.00000    0.333333    
    483 C     c    0.884000    0.142000    0.562500     0.00000    0.333333    
    484 C     c    0.884000    0.142000    0.812500     0.00000    0.333333    
    485 C     c    0.884000    0.342000    0.062500     0.00000    0.333333    
    486 C     c    0.884000    0.342000    0.312500     0.00000    0.333333    
    487 C     c    0.884000    0.342000    0.562500     0.00000    0.333333    
    488 C     c    0.884000    0.342000    0.812500     0.00000    0.333333    
    489 C     c    0.884000    0.542000    0.062500     0.00000    0.333333    
    490 C     c    0.884000    0.542000    0.312500     0.00000    0.333333    
    491 C     c    0.884000    0.542000    0.562500     0.00000    0.333333    
    492 C     c    0.884000    0.542000    0.812500     0.00000    0.333333    
    493 C     c    0.884000    0.742000    0.062500     0.00000    0.333333    
    494 C     c    0.884000    0.742000    0.312500     0.00000    0.333333    
    495 C     c    0.884000    0.742000    0.562500     0.00000    0.333333    
    496 C     c    0.884000    0.742000    0.812500     0.00000    0.333333    
    497 C     c    0.884000    0.942000    0.062500     0.00000    0.333333    
    498 C     c    0.884000    0.942000    0.312500     0.00000    0.333333    
    499 C     c    0.884000    0.942000    0.562500     0.00000    0.333333    
    500 C     c    0.884000    0.942000    0.812500     0.00000    0.333333    
    501 C     c    0.058000    0.142000    0.062500     0.00000    0.333333    
    502 C     c    0.058000    0.142000    0.312500     0.00000    0.333333    
    503 C     c    0.058000    0.142000    0.562500     0.00000    0.333333    
    504 C     c    0.058000    0.142000    0.812500     0.00000    0.333333    
    505 C     c    0.058000    0.342000    0.062500     0.00000    0.333333    
    506 C     c    0.058000    0.342000    0.312500     0.00000    0.333333    
    507 C     c    0.058000    0.342000    0.562500     0.00000    0.333333    
    508 C     c    0.058000    0.342000    0.812500     0.00000    0.333333    
    509 C     c    0.058000    0.542000    0.062500     0.00000    0.333333    
    510 C     c    0.058000    0.542000    0.312500     0.00000    0.333333    
    511 C     c    0.058000    0.542000    0.562500     0.00000    0.333333    
    512 C     c    0.058000    0.542000    0.812500     0.00000    0.333333    
    513 C     c    0.058000    0.742000    0.062500     0.00000    0.333333    
    514 C     c    0.058000    0.742000    0.312500     0.00000    0.333333    
    515 C     c    0.058000    0.742000    0.562500     0.00000    0.333333    
    516 C     c    0.058000    0.742000    0.812500     0.00000    0.333333    
    517 C     c    0.058000    0.942000    0.062500     0.00000    0.333333    
    518 C     c    0.058000    0.942000    0.312500     0.00000    0.333333    
    519 C     c    0.058000    0.942000    0.562500     0.00000    0.333333    
    520 C     c    0.058000    0.942000    0.812500     0.00000    0.333333    
    521 C     c    0.258000    0.142000    0.062500     0.00000    0.333333    
    522 C     c    0.258000    0.142000    0.312500     0.00000    0.333333    
    523 C     c    0.258000    0.142000    0.562500     0.00000    0.333333    
    524 C     c    0.258000    0.142000    0.812500     0.00000    0.333333    
    525 C     c    0.258000    0.342000    0.062500     0.00000    0.333333    
    526 C     c    0.258000    0.342000    0.312500     0.00000    0.333333    
    527 C     c    0.258000    0.342000    0.562500     0.00000    0.333333    
    528 C     c    0.258000    0.342000    0.812500     0.00000    0.333333    
    529 C     c    0.258000    0.542000    0.062500     0.00000    0.333333    
    530 C     c    0.258000    0.542000    0.312500     0.00000    0.333333    
    531 C     c    0.258000    0.542000    0.562500     0.00000    0.333333    
    532 C     c    0.258000    0.542000    0.812500     0.00000    0.333333    
    533 C     c    0.258000    0.742000    0.062500     0.00000    0.333333    
    534 C     c    0.258000    0.742000    0.312500     0.00000    0.333333    
    535 C     c    0.258000    0.742000    0.562500     0.00000    0.333333    
    536 C     c    0.258000    0.742000    0.812500     0.00000    0.333333    
    537 C     c    0.258000    0.942000    0.062500     0.00000    0.333333    
    538 C     c    0.258000    0.942000    0.312500     0.00000    0.333333    
    539 C     c    0.258000    0.942000    0.562500     0.00000    0.333333    
    540 C     c    0.258000    0.942000    0.812500     0.00000    0.333333    
    541 C     c    0.458000    0.142000    0.062500     0.00000    0.333333    
    542 C     c    0.458000    0.142000    0.312500     0.00000    0.333333    
    543 C     c    0.458000    0.142000    0.562500     0.00000    0.333333    
    544 C     c    0.458000    0.142000    0.812500     0.00000    0.333333    
    545 C     c    0.458000    0.342000    0.062500     0.00000    0.333333    
    546 C     c    0.458000    0.342000    0.312500     0.00000    0.333333    
    547 C     c    0.458000    0.342000    0.562500     0.00000    0.333333    
    548 C     c    0.458000    0.342000    0.812500     0.00000    0.333333    
    549 C     c    0.458000    0.542000    0.062500     0.00000    0.333333    
    550 C     c    0.458000    0.542000    0.312500     0.00000    0.333333    
    551 C     c    0.458000    0.542000    0.562500     0.00000    0.333333    
    552 C     c    0.458000    0.542000    0.812500     0.00000    0.333333    
    553 C     c    0.458000    0.742000    0.062500     0.00000    0.333333    
    554 C     c    0.458000    0.742000    0.312500     0.00000    0.333333    
    555 C     c    0.458000    0.742000    0.562500     0.00000    0.333333    
    556 C     c    0.458000    0.742000    0.812500     0.00000    0.333333    
    557 C     c    0.458000    0.942000    0.062500     0.00000    0.333333    
    558 C     c    0.458000    0.942000    0.312500     0.00000    0.333333    
    559 C     c    0.458000    0.942000    0.562500     0.00000    0.333333    
    560 C     c    0.458000    0.942000    0.812500     0.00000    0.333333    
    561 C     c    0.658000    0.142000    0.062500     0.00000    0.333333    
    562 C     c    0.658000    0.142000    0.312500     0.00000    0.333333    
    563 C     c    0.658000    0.142000    0.562500     0.00000    0.333333    
    564 C     c    0.658000    0.142000    0.812500     0.00000    0.333333    
    565 C     c    0.658000    0.342000    0.062500     0.00000    0.333333    
    566 C     c    0.658000    0.342000    0.312500     0.00000    0.333333    
    567 C     c    0.658000    0.342000    0.562500     0.00000    0.333333    
    568 C     c    0.658000    0.342000    0.812500     0.00000    0.333333    
    569 C     c    0.658000    0.542000    0.062500     0.00000    0.333333    
    570 C     c    0.658000    0.542000    0.312500     0.00000    0.333333    
    571 C     c    0.658000    0.542000    0.562500     0.00000    0.333333    
    572 C     c    0.658000    0.542000    0.812500     0.00000    0.333333    
    573 C     c    0.658000    0.742000    0.062500     0.00000    0.333333    
    574 C     c    0.658000    0.742000    0.312500     0.00000    0.333333    
    575 C     c    0.658000    0.742000    0.562500     0.00000    0.333333    
    576 C     c    0.658000    0.742000    0.812500     0.00000    0.333333    
    577 C     c    0.658000    0.942000    0.062500     0.00000    0.333333    
    578 C     c    0.658000    0.942000    0.312500     0.00000    0.333333    
    579 C     c    0.658000    0.942000    0.562500     0.00000    0.333333    
    580 C     c    0.658000    0.942000    0.812500     0.00000    0.333333    
    581 C     c    0.858000    0.142000    0.062500     0.00000    0.333333    
    582 C     c    0.858000    0.142000    0.312500     0.00000    0.333333    
    583 C     c    0.858000    0.142000    0.562500     0.00000    0.333333    
    584 C     c    0.858000    0.142000    0.812500     0.00000    0.333333    
    585 C     c    0.858000    0.342000    0.062500     0.00000    0.333333    
    586 C     c    0.858000    0.342000    0.312500     0.00000    0.333333    
    587 C     c    0.858000    0.342000    0.562500     0.00000    0.333333    
    588 C     c    0.858000    0.342000    0.812500     0.00000    0.333333    
    589 C     c    0.858000    0.542000    0.062500     0.00000    0.333333    
    590 C     c    0.858000    0.542000    0.312500     0.00000    0.333333    
    591 C     c    0.858000    0.542000    0.562500     0.00000    0.333333    
    592 C     c    0.858000    0.542000    0.812500     0.00000    0.333333    
    593 C     c    0.858000    0.742000    0.062500     0.00000    0.333333    
    594 C     c    0.858000    0.742000    0.312500     0.00000    0.333333    
    595 C     c    0.858000    0.742000    0.562500     0.00000    0.333333    
    596 C     c    0.858000    0.742000    0.812500     0.00000    0.333333    
    597 C     c    0.858000    0.942000    0.062500     0.00000    0.333333    
    598 C     c    0.858000    0.942000    0.312500     0.00000    0.333333    
    599 C     c    0.858000    0.942000    0.562500     0.00000    0.333333    
    600 C     c    0.858000    0.942000    0.812500     0.00000    0.333333    
    601 C     c    0.142000    0.058000    0.187500     0.00000    0.333333    
    602 C     c    0.142000    0.058000    0.437500     0.00000    0.333333    
    603 C     c    0.142000    0.058000    0.687500     0.00000    0.333333    
    604 C     c    0.142000    0.058000    0.937500     0.00000    0.333333    
    605 C     c    0.142000    0.258000    0.187500     0.00000    0.333333    
    606 C     c    0.142000    0.258000    0.437500     0.00000    0.333333    
    607 C     c    0.142000    0.258000    0.687500     0.00000    0.333333    
    608 C     c    0.142000    0.258000    0.937500     0.00000    0.333333    
    609 C     c    0.142000    0.458000    0.187500     0.00000    0.333333    
    610 C     c    0.142000    0.458000    0.437500     0.00000    0.333333    
    611 C     c    0.142000    0.458000    0.687500     0.00000    0.333333    
    612 C     c    0.142000    0.458000    0.937500     0.00000    0.333333    
    613 C     c    0.142000    0.658000    0.187500     0.00000    0.333333    
    614 C     c    0.142000    0.658000    0.437500     0.00000    0.333333    
    615 C     c    0.142000    0.658000    0.687500     0.00000    0.333333    
    616 C     c    0.142000    0.658000    0.937500     0.00000    0.333333    
    617 C     c    0.142000    0.858000    0.187500     0.00000    0.333333    
    618 C     c    0.142000    0.858000    0.437500     0.00000    0.333333    
    619 C     c    0.142000    0.858000    0.687500     0.00000    0.333333    
    620 C     c    0.142000    0.858000    0.937500     0.00000    0.333333    
    621 C     c    0.342000    0.058000    0.187500     0.00000    0.333333    
    622 C     c    0.342000    0.058000    0.437500     0.00000    0.333333    
    623 C     c    0.342000    0.058000    0.687500     0.00000    0.333333    
    624 C     c    0.342000    0.058000    0.937500     0.00000    0.333333    
    625 C     c    0.342000    0.258000    0.187500     0.00000    0.333333    
    626 C     c    0.342000    0.258000    0.437500     0.00000    0.333333    
    627 C     c    0.342000    0.258000    0.687500     0.00000    0.333333    
    628 C     c    0.342000    0.258000    0.937500     0.00000    0.333333    
    629 C     c    0.342000    0.458000    0.187500     0.00000    0.333333    
    630 C     c    0.342000    0.458000    0.437500     0.00000    0.333333    
    631 C     c    0.342000    0.458000    0.687500     0.00000    0.333333    
    632 C     c    0.342000    0.458000    0.937500     0.00000    0.333333    
    633 C     c    0.342000    0.658000    0.187500     0.00000    0.333333    
    634 C     c    0.342000    0.658000    0.437500     0.00000    0.333333    
    635 C     c    0.342000    0.658000    0.687500     0.00000    0.333333    
    636 C     c    0.342000    0.658000    0.937500     0.00000    0.333333    
    637 C     c    0.342000    0.858000    0.187500     0.00000    0.333333    
    638 C     c    0.342000    0.858000    0.437500     0.00000    0.333333    
    639 C     c    0.342000    0.858000    0.687500     0.00000    0.333333    
    640 C     c    0.342000    0.858000    0.937500     0.00000    0.333333    
    641 C     c    0.542000    0.058000    0.187500     0.00000    0.333333    
    642 C     c    0.542000    0.058000    0.437500     0.00000    0.333333    
    643 C     c    0.542000    0.058000    0.687500     0.00000    0.333333    
    644 C     c    0.542000    0.058000    0.937500     0.00000    0.333333    
    645 C     c    0.542000    0.258000    0.187500     0.00000    0.333333    
    646 C     c    0.542000    0.258000    0.437500     0.00000    0.333333    
    647 C     c    0.542000    0.258000    0.687500     0.00000    0.333333    
    648 C     c    0.542000    0.258000    0.937500     0.00000    0.333333    
    649 C     c    0.542000    0.458000    0.187500     0.00000    0.333333    
    650 C     c    0.542000    0.458000    0.437500     0.00000    0.333333    
    651 C     c    0.542000    0.458000    0.687500     0.00000    0.333333    
    652 C     c    0.542000    0.458000    0.937500     0.00000    0.333333    
    653 C     c    0.542000    0.658000    0.187500     0.00000    0.333333    
    654 C     c    0.542000    0.658000    0.437500     0.00000    0.333333    
    655 C     c    0.542000    0.658000    0.687500     0.00000    0.333333    
    656 C     c    0.542000    0.658000    0.937500     0.00000    0.333333    
    657 C     c    0.542000    0.858000    0.187500     0.00000    0.333333    
    658 C     c    0.542000    0.858000    0.437500     0.00000    0.333333    
    659 C     c    0.542000    0.858000    0.687500     0.00000    0.333333    
    660 C     c    0.542000    0.858000    0.937500     0.00000    0.333333    
    661 C     c    0.742000    0.058000    0.187500     0.00000    0.333333    
    662 C     c    0.742000    0.058000    0.437500     0.00000    0.333333    
    663 C     c    0.742000    0.058000    0.687500     0.00000    0.333333    
    664 C     c    0.742000    0.058000    0.937500     0.00000    0.333333    
    665 C     c    0.742000    0.258000    0.187500     0.00000    0.333333    
    666 C     c    0.742000    0.258000    0.437500     0.00000    0.333333    
    667 C     c    0.742000    0.258000    0.687500     0.00000    0.333333    
    668 C     c    0.742000    0.258000    0.937500     0.00000    0.333333    
    669 C     c    0.742000    0.458000    0.187500     0.00000    0.333333    
    670 C     c    0.742000    0.458000    0.437500     0.00000    0.333333    
    671 C     c    0.742000    0.458000    0.687500     0.00000    0.333333    
    672 C     c    0.742000    0.458000    0.937500     0.00000    0.333333    
    673 C     c    0.742000    0.658000    0.187500     0.00000    0.333333    
    674 C     c    0.742000    0.658000    0.437500     0.00000    0.333333    
    675 C     c    0.742000    0.658000    0.687500     0.00000    0.333333    
    676 C     c    0.742000    0.658000    0.937500     0.00000    0.333333    
    677 C     c    0.742000    0.858000    0.187500     0.00000    0.333333    
    678 C     c    0.742000    0.858000    0.437500     0.00000    0.333333    
    679 C     c    0.742000    0.858000    0.687500     0.00000    0.333333    
    680 C     c    0.742000    0.858000    0.937500     0.00000    0.333333    
    681 C     c    0.942000    0.058000    0.187500     0.00000    0.333333    
    682 C     c    0.942000    0.058000    0.437500     0.00000    0.333333    
    683 C     c    0.942000    0.058000    0.687500     0.00000    0.333333    
    684 C     c    0.942000    0.058000    0.937500     0.00000    0.333333    
    685 C     c    0.942000    0.258000    0.187500     0.00000    0.333333    
    686 C     c    0.942000    0.258000    0.437500     0.00000    0.333333    
    687 C     c    0.942000    0.258000    0.687500     0.00000    0.333333    
    688 C     c    0.942000    0.258000    0.937500     0.00000    0.333333    
    689 C     c    0.942000    0.458000    0.187500     0.00000    0.333333    
    690 C     c    0.942000    0.458000    0.437500     0.00000    0.333333    
    691 C     c    0.942000    0.458000    0.687500     0.00000    0.333333    
    692 C     c    0.942000    0.458000    0.937500     0.00000    0.333333    
    693 C     c    0.942000    0.658000    0.187500     0.00000    0.333333    
    694 C     c    0.942000    0.658000    0.437500     0.00000    0.333333    
    695 C     c    0.942000    0.658000    0.687500     0.00000    0.333333    
    696 C     c    0.942000    0.658000    0.937500     0.00000    0.333333    
    697 C     c    0.942000    0.858000    0.187500     0.00000    0.333333    
    698 C     c    0.942000    0.858000    0.437500     0.00000    0.333333    
    699 C     c    0.942000    0.858000    0.687500     0.00000    0.333333    
    700 C     c    0.942000    0.858000    0.937500     0.00000    0.333333    
    701 C     c    0.116000    0.058000    0.187500     0.00000    0.333333    
    702 C     c    0.116000    0.058000    0.437500     0.00000    0.333333    
    703 C     c    0.116000    0.058000    0.687500     0.00000    0.333333    
    704 C     c    0.116000    0.058000    0.937500     0.00000    0.333333    
    705 C     c    0.116000    0.258000    0.187500     0.00000    0.333333    
    706 C     c    0.116000    0.258000    0.437500     0.00000    0.333333    
    707 C     c    0.116000    0.258000    0.687500     0.00000    0.333333    
    708 C     c    0.116000    0.258000    0.937500     0.00000    0.333333    
    709 C     c    0.116000    0.458000    0.187500     0.00000    0.333333    
    710 C     c    0.116000    0.458000    0.437500     0.00000    0.333333    
    711 C     c    0.116000    0.458000    0.687500     0.00000    0.333333    
    712 C     c    0.116000    0.458000    0.937500     0.00000    0.333333    
    713 C     c    0.116000    0.658000    0.187500     0.00000    0.333333    
    714 C     c    0.116000    0.658000    0.437500     0.00000    0.333333    
    715 C     c    0.116000    0.658000    0.687500     0.00000    0.333333    
    716 C     c    0.116000    0.658000    0.937500     0.00000    0.333333    
    717 C     c    0.116000    0.858000    0.187500     0.00000    0.333333    
    718 C     c    0.116000    0.858000    0.437500     0.00000    0.333333    
    719 C     c    0.116000    0.858000    0.687500     0.00000    0.333333    
    720 C     c    0.116000    0.858000    0.937500     0.00000    0.333333    
    721 C     c    0.316000    0.058000    0.187500     0.00000    0.333333    
    722 C     c    0.316000    0.058000    0.437500     0.00000    0.333333    
    723 C     c    0.316000    0.058000    0.687500     0.00000    0.333333    
    724 C     c    0.316000    0.058000    0.937500     0.00000    0.333333    
    725 C     c    0.316000    0.258000    0.187500     0.00000    0.333333    
    726 C     c    0.316000    0.258000    0.437500     0.00000    0.333333    
    727 C     c    0.316000    0.258000    0.687500     0.00000    0.333333    
    728 C     c    0.316000    0.258000    0.937500     0.00000    0.333333    
    729 C     c    0.316000    0.458000    0.187500     0.00000    0.333333    
    730 C     c    0.316000    0.458000    0.437500     0.00000    0.333333    
    731 C     c    0.316000    0.458000    0.687500     0.00000    0.333333    
    732 C     c    0.316000    0.458000    0.937500     0.00000    0.333333    
    733 C     c    0.316000    0.658000    0.187500     0.00000    0.333333    
    734 C     c    0.316000    0.658000    0.437500     0.00000    0.333333    
    735 C     c    0.316000    0.658000    0.687500     0.00000    0.333333    
    736 C     c    0.316000    0.658000    0.937500     0.00000    0.333333    
    737 C     c    0.316000    0.858000    0.187500     0.00000    0.333333    
    738 C     c    0.316000    0.858000    0.437500     0.00000    0.333333    
    739 C     c    0.316000    0.858000    0.687500     0.00000    0.333333    
    740 C     c    0.316000    0.858000    0.937500     0.00000    0.333333    
    741 C     c    0.516000    0.058000    0.187500     0.00000    0.333333    
    742 C     c    0.516000    0.058000    0.437500     0.00000    0.333333    
    743 C     c    0.516000    0.058000    0.687500     0.00000    0.333333    
    744 C     c    0.516000    0.058000    0.937500     0.00000    0.333333    
    745 C     c    0.516000    0.258000    0.187500     0.00000    0.333333    
    746 C     c    0.516000    0.258000    0.437500     0.00000    0.333333    
    747 C     c    0.516000    0.258000    0.687500     0.00000    0.333333    
    748 C     c    0.516000    0.258000    0.937500     0.00000    0.333333    
    749 C     c    0.516000    0.458000    0.187500     0.00000    0.333333    
    750 C     c    0.516000    0.458000    0.437500     0.00000    0.333333    
    751 C     c    0.516000    0.458000    0.687500     0.00000    0.333333    
    752 C     c    0.516000    0.458000    0.937500     0.00000    0.333333    
    753 C     c    0.516000    0.658000    0.187500     0.00000    0.333333    
    754 C     c    0.516000    0.658000    0.437500     0.00000    0.333333    
    755 C     c    0.516000    0.658000    0.687500     0.00000    0.333333    
    756 C     c    0.516000    0.658000    0.937500     0.00000    0.333333    
    757 C     c    0.516000    0.858000    0.187500     0.00000    0.333333    
    758 C     c    0.516000    0.858000    0.437500     0.00000    0.333333    
    759 C     c    0.516000    0.858000    0.687500     0.00000    0.333333    
    760 C     c    0.516000    0.858000    0.937500     0.00000    0.333333    
    761 C     c    0.716000    0.058000    0.187500     0.00000    0.333333    
    762 C     c    0.716000    0.058000    0.437500     0.00000    0.333333    
    763 C     c    0.716000    0.058000    0.687500     0.00000    0.333333    
    764 C     c    0.716000    0.058000    0.937500     0.00000    0.333333    
    765 C     c    0.716000    0.258000    0.187500     0.00000    0.333333    
    766 C     c    0.716000    0.258000    0.437500     0.00000    0.333333    
    767 C     c    0.716000    0.258000    0.687500     0.00000    0.333333    
    768 C     c    0.716000    0.258000    0.937500     0.00000    0.333333    
    769 C     c    0.716000    0.458000    0.187500     0.00000    0.333333    
    770 C     c    0.716000    0.458000    0.437500     0.00000    0.333333    
    771 C     c    0.716000    0.458000    0.687500     0.00000    0.333333    
    772 C     c    0.716000    0.458000    0.937500     0.00000    0.333333    
    773 C     c    0.716000    0.658000    0.187500     0.00000    0.333333    
    774 C     c    0.716000    0.658000    0.437500     0.00000    0.333333    
    775 C     c    0.716000    0.658000    0.687500     0.00000    0.333333    
    776 C     c    0.716000    0.658000    0.937500     0.00000    0.333333    
    777 C     c    0.716000    0.858000    0.187500     0.00000    0.333333    
    778 C     c    0.716000    0.858000    0.437500     0.00000    0.333333    
    779 C     c    0.716000    0.858000    0.687500     0.00000    0.333333    
    780 C     c    0.716000    0.858000    0.937500     0.00000    0.333333    
    781 C     c    0.916000    0.058000    0.187500     0.00000    0.333333    
    782 C     c    0.916000    0.058000    0.437500     0.00000    0.333333    
    783 C     c    0.916000    0.058000    0.687500     0.00000    0.333333    
    784 C     c    0.916000    0.058000    0.937500     0.00000    0.333333    
    785 C     c    0.916000    0.258000    0.187500     0.00000    0.333333    
    786 C     c    0.916000    0.258000    0.437500     0.00000    0.333333    
    787 C     c    0.916000    0.258000    0.687500     0.00000    0.333333    
    788 C     c    0.916000    0.258000    0.937500     0.00000    0.333333    
    789 C     c    0.916000    0.458000    0.187500     0.00000    0.333333    
    790 C     c    0.916000    0.458000    0.437500     0.00000    0.333333    
    791 C     c    0.916000    0.458000    0.687500     0.00000    0.333333    
    792 C     c    0.916000    0.458000    0.937500     0.00000    0.333333    
    793 C     c    0.916000    0.658000    0.187500     0.00000    0.333333    
    794 C     c    0.916000    0.658000    0.437500     0.00000    0.333333    
    795 C     c    0.916000    0.658000    0.687500     0.00000    0.333333    
    796 C     c    0.916000    0.658000    0.937500     0.00000    0.333333    
    797 C     c    0.916000    0.858000    0.187500     0.00000    0.333333    
    798 C     c    0.916000    0.858000    0.437500     0.00000    0.333333    
    799 C     c    0.916000    0.858000    0.687500     0.00000    0.333333    
    800 C     c    0.916000    0.858000    0.937500     0.00000    0.333333    
    801 O     c    0.024000    0.048000    0.062500     0.00000    0.333333    
    802 O     c    0.024000    0.048000    0.312500     0.00000    0.333333    
    803 O     c    0.024000    0.048000    0.562500     0.00000    0.333333    
    804 O     c    0.024000    0.048000    0.812500     0.00000    0.333333    
    805 O     c    0.024000    0.248000    0.062500     0.00000    0.333333    
    806 O     c    0.024000    0.248000    0.312500     0.00000    0.333333    
    807 O     c    0.024000    0.248000    0.562500     0.00000    0.333333    
    808 O     c    0.024000    0.248000    0.812500     0.00000    0.333333    
    809 O     c    0.024000    0.448000    0.062500     0.00000    0.333333    
    810 O     c    0.024000    0.448000    0.312500     0.00000    0.333333    
    811 O     c    0.024000    0.448000    0.562500     0.00000    0.333333    
    812 O     c    0.024000    0.448000    0.812500     0.00000    0.333333    
    813 O     c    0.024000    0.648000    0.062500     0.00000    0.333333    
    814 O     c    0.024000    0.648000    0.312500     0.00000    0.333333    
    815 O     c    0.024000    0.648000    0.562500     0.00000    0.333333    
    816 O     c    0.024000    0.648000    0.812500     0.00000    0.333333    
    817 O     c    0.024000    0.848000    0.062500     0.00000    0.333333    
    818 O     c    0.024000    0.848000    0.312500     0.00000    0.333333    
    819 O     c    0.024000    0.848000    0.562500     0.00000    0.333333    
    820 O     c    0.024000    0.848000    0.812500     0.00000    0.333333    
    821 O     c    0.224000    0.048000    0.062500     0.00000    0.333333    
    822 O     c    0.224000    0.048000    0.312500     0.00000    0.333333    
    823 O     c    0.224000    0.048000    0.562500     0.00000    0.333333    
    824 O     c    0.224000    0.048000    0.812500     0.00000    0.333333    
    825 O     c    0.224000    0.248000    0.062500     0.00000    0.333333    
    826 O     c    0.224000    0.248000    0.312500     0.00000    0.333333    
    827 O     c    0.224000    0.248000    0.562500     0.00000    0.333333    
    828 O     c    0.224000    0.248000    0.812500     0.00000    0.333333    
    829 O     c    0.224000    0.448000    0.062500     0.00000    0.333333    
    830 O     c    0.224000    0.448000    0.312500     0.00000    0.333333    
    831 O     c    0.224000    0.448000    0.562500     0.00000    0.333333    
    832 O     c    0.224000    0.448000    0.812500     0.00000    0.333333    
    833 O     c    0.224000    0.648000    0.062500     0.00000    0.333333    
    834 O     c    0.224000    0.648000    0.312500     0.00000    0.333333    
    835 O     c    0.224000    0.648000    0.562500     0.00000    0.333333    
    836 O     c    0.224000    0.648000    0.812500     0.00000    0.333333    
    837 O     c    0.224000    0.848000    0.062500     0.00000    0.333333    
    838 O     c    0.224000    0.848000    0.312500     0.00000    0.333333    
    839 O     c    0.224000    0.848000    0.562500     0.00000    0.333333    
    840 O     c    0.224000    0.848000    0.812500     0.00000    0.333333    
    841 O     c    0.424000    0.048000    0.062500     0.00000    0.333333    
    842 O     c    0.424000    0.048000    0.312500     0.00000    0.333333    
    843 O     c    0.424000    0.048000    0.562500     0.00000    0.333333    
    844 O     c    0.424000    0.048000    0.812500     0.00000    0.333333    
    845 O     c    0.424000    0.248000    0.062500     0.00000    0.333333    
    846 O     c    0.424000    0.248000    0.312500     0.00000    0.333333    
    847 O     c    0.424000    0.248000    0.562500     0.00000    0.333333    
    848 O     c    0.424000    0.248000    0.812500     0.00000    0.333333    
    849 O     c    0.424000    0.448000    0.062500     0.00000    0.333333    
    850 O     c    0.424000    0.448000    0.312500     0.00000    0.333333    
    851 O     c    0.424000    0.448000    0.562500     0.00000    0.333333    
    852 O     c    0.424000    0.448000    0.812500     0.00000    0.333333    
    853 O     c    0.424000    0.648000    0.062500     0.00000    0.333333    
    854 O     c    0.424000    0.648000    0.312500     0.00000    0.333333    
    855 O     c    0.424000    0.648000    0.562500     0.00000    0.333333    
    856 O     c    0.424000    0.648000    0.812500     0.00000    0.333333    
    857 O     c    0.424000    0.848000    0.062500     0.00000    0.333333    
    858 O     c    0.424000    0.848000    0.312500     0.00000    0.333333    
    859 O     c    0.424000    0.848000    0.562500     0.00000    0.333333    
    860 O     c    0.424000    0.848000    0.812500     0.00000    0.333333    
    861 O     c    0.624000    0.048000    0.062500     0.00000    0.333333    
    862 O     c    0.624000    0.048000    0.312500     0.00000    0.333333    
    863 O     c    0.624000    0.048000    0.562500     0.00000    0.333333    
    864 O     c    0.624000    0.048000    0.812500     0.00000    0.333333    
    865 O     c    0.624000    0.248000    0.062500     0.00000    0.333333    
    866 O     c    0.624000    0.248000    0.312500     0.00000    0.333333    
    867 O     c    0.624000    0.248000    0.562500     0.00000    0.333333    
    868 O     c    0.624000    0.248000    0.812500     0.00000    0.333333    
    869 O     c    0.624000    0.448000    0.062500     0.00000    0.333333    
    870 O     c    0.624000    0.448000    0.312500     0.00000    0.333333    
    871 O     c    0.624000    0.448000    0.562500     0.00000    0.333333    
    872 O     c    0.624000    0.448000    0.812500     0.00000    0.333333    
    873 O     c    0.624000    0.648000    0.062500     0.00000    0.333333    
    874 O     c    0.624000    0.648000    0.312500     0.00000    0.333333    
    875 O     c    0.624000    0.648000    0.562500     0.00000    0.333333    
    876 O     c    0.624000    0.648000    0.812500     0.00000    0.333333    
    877 O     c    0.624000    0.848000    0.062500     0.00000    0.333333    
    878 O     c    0.624000    0.848000    0.312500     0.00000    0.333333    
    879 O     c    0.624000    0.848000    0.562500     0.00000    0.333333    
    880 O     c    0.624000    0.848000    0.812500     0.00000    0.333333    
    881 O     c    0.824000    0.048000    0.062500     0.00000    0.333333    
    882 O     c    0.824000    0.048000    0.312500     0.00000    0.333333    
    883 O     c    0.824000    0.048000    0.562500     0.00000    0.333333    
    884 O     c    0.824000    0.048000    0.812500     0.00000    0.333333    
    885 O     c    0.824000    0.248000    0.062500     0.00000    0.333333    
    886 O     c    0.824000    0.248000    0.312500     0.00000    0.333333    
    887 O     c    0.824000    0.248000    0.562500     0.00000    0.333333    
    888 O     c    0.824000    0.248000    0.812500     0.00000    0.333333    
    889 O     c    0.824000    0.448000    0.062500     0.00000    0.333333    
    890 O     c    0.824000    0.448000    0.312500     0.00000    0.333333    
    891 O     c    0.824000    0.448000    0.562500     0.00000    0.333333    
    892 O     c    0.824000    0.448000    0.812500     0.00000    0.333333    
    893 O     c    0.824000    0.648000    0.062500     0.00000    0.333333    
    894 O     c    0.824000    0.648000    0.312500     0.00000    0.333333    
    895 O     c    0.824000    0.648000    0.562500     0.00000    0.333333    
    896 O     c    0.824000    0.648000    0.812500     0.00000    0.333333    
    897 O     c    0.824000    0.848000    0.062500     0.00000    0.333333    
    898 O     c    0.824000    0.848000    0.312500     0.00000    0.333333    
    899 O     c    0.824000    0.848000    0.562500     0.00000    0.333333    
    900 O     c    0.824000    0.848000    0.812500     0.00000    0.333333    
    901 O     c    0.176000    0.152000    0.187500     0.00000    0.333333    
    902 O     c    0.176000    0.152000    0.437500     0.00000    0.333333    
    903 O     c    0.176000    0.152000    0.687500     0.00000    0.333333    
    904 O     c    0.176000    0.152000    0.937500     0.00000    0.333333    
    905 O     c    0.176000    0.352000    0.187500     0.00000    0.333333    
    906 O     c    0.176000    0.352000    0.437500     0.00000    0.333333    
    907 O     c    0.176000    0.352000    0.687500     0.00000    0.333333    
    908 O     c    0.176000    0.352000    0.937500     0.00000    0.333333    
    909 O     c    0.176000    0.552000    0.187500     0.00000    0.333333    
    910 O     c    0.176000    0.552000    0.437500     0.00000    0.333333    
    911 O     c    0.176000    0.552000    0.687500     0.00000    0.333333    
    912 O     c    0.176000    0.552000    0.937500     0.00000    0.333333    
    913 O     c    0.176000    0.752000    0.187500     0.00000    0.333333    
    914 O     c    0.176000    0.752000    0.437500     0.00000    0.333333    
    915 O     c    0.176000    0.752000    0.687500     0.00000    0.333333    
    916 O     c    0.176000    0.752000    0.937500     0.00000    0.333333    
    917 O     c    0.176000    0.952000    0.187500     0.00000    0.333333    
    918 O     c    0.176000    0.952000    0.437500     0.00000    0.333333    
    919 O     c    0.176000    0.952000    0.687500     0.00000    0.333333    
    920 O     c    0.176000    0.952000    0.937500     0.00000    0.333333    
    921 O     c    0.376000    0.152000    0.187500     0.00000    0.333333    
    922 O     c    0.376000    0.152000    0.437500     0.00000    0.333333    
    923 O     c    0.376000    0.152000    0.687500     0.00000    0.333333    
    924 O     c    0.376000    0.152000    0.937500     0.00000    0.333333    
    925 O     c    0.376000    0.352000    0.187500     0.00000    0.333333    
    926 O     c    0.376000    0.352000    0.437500     0.00000    0.333333    
    927 O     c    0.376000    0.352000    0.687500     0.00000    0.333333    
    928 O     c    0.376000    0.352000    0.937500     0.00000    0.333333    
    929 O     c    0.376000    0.552000    0.187500     0.00000    0.333333    
    930 O     c    0.376000    0.552000    0.437500     0.00000    0.333333    
    931 O     c    0.376000    0.552000    0.687500     0.00000    0.333333    
    932 O     c    0.376000    0.552000    0.937500     0.00000    0.333333    
    933 O     c    0.376000    0.752000    0.187500     0.00000    0.333333    
    934 O     c    0.376000    0.752000    0.437500     0.00000    0.333333    
    935 O     c    0.376000    0.752000    0.687500     0.00000    0.333333    
    936 O     c    0.376000    0.752000    0.937500     0.00000    0.333333    
    937 O     c    0.376000    0.952000    0.187500     0.00000    0.333333    
    938 O     c    0.376000    0.952000    0.437500     0.00000    0.333333    
    939 O     c    0.376000    0.952000    0.687500     0.00000    0.333333    
    940 O     c    0.376000    0.952000    0.937500     0.00000    0.333333    
    941 O     c    0.576000    0.152000    0.187500     0.00000    0.333333    
    942 O     c    0.576000    0.152000    0.437500     0.00000    0.333333    
    943 O     c    0.576000    0.152000    0.687500     0.00000    0.333333    
    944 O     c    0.576000    0.152000    0.937500     0.00000    0.333333    
    945 O     c    0.576000    0.352000    0.187500     0.00000    0.333333    
    946 O     c    0.576000    0.352000    0.437500     0.00000    0.333333    
    947 O     c    0.576000    0.352000    0.687500     0.00000    0.333333    
    948 O     c    0.576000    0.352000    0.937500     0.00000    0.333333    
    949 O     c    0.576000    0.552000    0.187500     0.00000    0.333333    
    950 O     c    0.576000    0.552000    0.437500     0.00000    0.333333    
    951 O     c    0.576000    0.552000    0.687500     0.00000    0.333333    
    952 O     c    0.576000    0.552000    0.937500     0.00000    0.333333    
    953 O     c    0.576000    0.752000    0.187500     0.00000    0.333333    
    954 O     c    0.576000    0.752000    0.437500     0.00000    0.333333    
    955 O     c    0.576000    0.752000    0.687500     0.00000    0.333333    
    956 O     c    0.576000    0.752000    0.937500     0.00000    0.333333    
    957 O     c    0.576000    0.952000    0.187500     0.00000    0.333333    
    958 O     c    0.576000    0.952000    0.437500     0.00000    0.333333    
    959 O     c    0.576000    0.952000    0.687500     0.00000    0.333333    
    960 O     c    0.576000    0.952000    0.937500     0.00000    0.333333    
    961 O     c    0.776000    0.152000    0.187500     0.00000    0.333333    
[...]
      2269                   8                 0.4077501
      2270                   8                 0.4077501
      2271                   8                 0.4077501
      2272                   8                 0.4077501
      2273                   8                 0.4077501
      2274                   8                 0.4077501
      2275                   8                 0.4077501
      2276                   8                 0.4077501
      2277                   8                 0.4077501
      2278                   8                 0.4077501
      2279                   8                 0.4077501
      2280                   8                 0.4077501
      2281                   8                 0.4077501
      2282                   8                 0.4077501
      2283                   8                 0.4077501
      2284                   8                 0.4077501
      2285                   8                 0.4077501
      2286                   8                 0.4077501
      2287                   8                 0.4077501
      2288                   8                 0.4077501
      2289                   8                 0.4077501
      2290                   8                 0.4077501
      2291                   8                 0.4077501
      2292                   8                 0.4077501
      2293                   8                 0.4077501
      2294                   8                 0.4077501
      2295                   8                 0.4077501
      2296                   8                 0.4077501
      2297                   8                 0.4077501
      2298                   8                 0.4077501
      2299                   8                 0.4077501
      2300                   8                 0.4077501
      2301                   8                 0.4077501
      2302                   8                 0.4077501
      2303                   8                 0.4077501
      2304                   8                 0.4077501
      2305                   8                 0.4077501
      2306                   8                 0.4077501
      2307                   8                 0.4077501
      2308                   8                 0.4077501
      2309                   8                 0.4077501
      2310                   8                 0.4077501
      2311                   8                 0.4077501
      2312                   8                 0.4077501
      2313                   8                 0.4077501
      2314                   8                 0.4077501
      2315                   8                 0.4077501
      2316                   8                 0.4077501
      2317                   8                 0.4077501
      2318                   8                 0.4077501
      2319                   8                 0.4077501
      2320                   8                 0.4077501
      2321                   8                 0.4077501
      2322                   8                 0.4077501
      2323                   8                 0.4077501
      2324                   8                 0.4077501
      2325                   8                 0.4077501
      2326                   8                 0.4077501
      2327                   8                 0.4077501
      2328                   8                 0.4077501
      2329                   8                 0.4077501
      2330                   8                 0.4077501
      2331                   8                 0.4077501
      2332                   8                 0.4077501
      2333                   8                 0.4077501
      2334                   8                 0.4077501
      2335                   8                 0.4077501
      2336                   8                 0.4077501
      2337                   8                 0.4077501
      2338                   8                 0.4077501
      2339                   8                 0.4077501
      2340                   8                 0.4077501
      2341                   8                 0.4077501
      2342                   8                 0.4077501
      2343                   8                 0.4077501
      2344                   8                 0.4077501
      2345                   8                 0.4077501
      2346                   8                 0.4077501
      2347                   8                 0.4077501
      2348                   8                 0.4077501
      2349                   8                 0.4077501
      2350                   8                 0.4077501
      2351                   8                 0.4077501
      2352                   8                 0.4077501
      2353                   8                 0.4077501
      2354                   8                 0.4077501
      2355                   8                 0.4077501
      2356                   8                 0.4077501
      2357                   8                 0.4077501
      2358                   8                 0.4077501
      2359                   8                 0.4077501
      2360                   8                 0.4077501
      2361                   8                 0.4077501
      2362                   8                 0.4077501
      2363                   8                 0.4077501
      2364                   8                 0.4077501
      2365                   8                 0.4077501
      2366                   8                 0.4077501
      2367                   8                 0.4077501
      2368                   8                 0.4077501
      2369                   8                 0.4077501
      2370                   8                 0.4077501
      2371                   8                 0.4077501
      2372                   8                 0.4077501
      2373                   8                 0.4077501
      2374                   8                 0.4077501
      2375                   8                 0.4077501
      2376                   8                 0.4077501
      2377                   8                 0.4077501
      2378                   8                 0.4077501
      2379                   8                 0.4077501
      2380                   8                 0.4077501
      2381                   8                 0.4077501
      2382                   8                 0.4077501
      2383                   8                 0.4077501
      2384                   8                 0.4077501
      2385                   8                 0.4077501
      2386                   8                 0.4077501
      2387                   8                 0.4077501
      2388                   8                 0.4077501
      2389                   8                 0.4077501
      2390                   8                 0.4077501
      2391                   8                 0.4077501
      2392                   8                 0.4077501
      2393                   8                 0.4077501
      2394                   8                 0.4077501
      2395                   8                 0.4077501
      2396                   8                 0.4077501
      2397                   8                 0.4077501
      2398                   8                 0.4077501
      2399                   8                 0.4077501
      2400                   8                 0.4077501
      2401                   8                 0.4077501
      2402                   8                 0.4077501
      2403                   8                 0.4077501
      2404                   8                 0.4077501
      2405                   8                 0.4077501
      2406                   8                 0.4077501
      2407                   8                 0.4077501
      2408                   8                 0.4077501
      2409                   8                 0.4077501
      2410                   8                 0.4077501
      2411                   8                 0.4077501
      2412                   8                 0.4077501
      2413                   8                 0.4077501
      2414                   8                 0.4077501
      2415                   8                 0.4077501
      2416                   8                 0.4077501
      2417                   8                 0.4077501
      2418                   8                 0.4077501
      2419                   8                 0.4077501
      2420                   8                 0.4077501
      2421                   8                 0.4077501
      2422                   8                 0.4077501
      2423                   8                 0.4077501
      2424                   8                 0.4077501
      2425                   8                 0.4077501
      2426                   8                 0.4077501
      2427                   8                 0.4077501
      2428                   8                 0.4077501
      2429                   8                 0.4077501
      2430                   8                 0.4077501
      2431                   8                 0.4077501
      2432                   8                 0.4077501
      2433                   8                 0.4077501
      2434                   8                 0.4077501
      2435                   8                 0.4077501
      2436                   8                 0.4077501
      2437                   8                 0.4077501
      2438                   8                 0.4077501
      2439                   8                 0.4077501
      2440                   8                 0.4077501
      2441                   8                 0.4077501
      2442                   8                 0.4077501
      2443                   8                 0.4077501
      2444                   8                 0.4077501
      2445                   8                 0.4077501
      2446                   8                 0.4077501
      2447                   8                 0.4077501
      2448                   8                 0.4077501
      2449                   8                 0.4077501
      2450                   8                 0.4077501
      2451                   8                 0.4077501
      2452                   8                 0.4077501
      2453                   8                 0.4077501
      2454                   8                 0.4077501
      2455                   8                 0.4077501
      2456                   8                 0.4077501
      2457                   8                 0.4077501
      2458                   8                 0.4077501
      2459                   8                 0.4077501
      2460                   8                 0.4077501
      2461                   8                 0.4077501
      2462                   8                 0.4077501
      2463                   8                 0.4077501
      2464                   8                 0.4077501
      2465                   8                 0.4077501
      2466                   8                 0.4077501
      2467                   8                 0.4077501
      2468                   8                 0.4077501
      2469                   8                 0.4077501
      2470                   8                 0.4077501
      2471                   8                 0.4077501
      2472                   8                 0.4077501
      2473                   8                 0.4077501
      2474                   8                 0.4077501
      2475                   8                 0.4077501
      2476                   8                 0.4077501
      2477                   8                 0.4077501
      2478                   8                 0.4077501
      2479                   8                 0.4077501
      2480                   8                 0.4077501
      2481                   8                 0.4077501
      2482                   8                 0.4077501
      2483                   8                 0.4077501
      2484                   8                 0.4077501
      2485                   8                 0.4077501
      2486                   8                 0.4077501
      2487                   8                 0.4077501
      2488                   8                 0.4077501
      2489                   8                 0.4077501
      2490                   8                 0.4077501
      2491                   8                 0.4077501
      2492                   8                 0.4077501
      2493                   8                 0.4077501
      2494                   8                 0.4077501
      2495                   8                 0.4077501
      2496                   8                 0.4077501
      2497                   8                 0.4077501
      2498                   8                 0.4077501
      2499                   8                 0.4077501
      2500                   8                 0.4077501
      2501                   8                 0.4077501
      2502                   8                 0.4077501
      2503                   8                 0.4077501
      2504                   8                 0.4077501
      2505                   8                 0.4077501
      2506                   8                 0.4077501
      2507                   8                 0.4077501
      2508                   8                 0.4077501
      2509                   8                 0.4077501
      2510                   8                 0.4077501
      2511                   8                 0.4077501
      2512                   8                 0.4077501
      2513                   8                 0.4077501
      2514                   8                 0.4077501
      2515                   8                 0.4077501
      2516                   8                 0.4077501
      2517                   8                 0.4077501
      2518                   8                 0.4077501
      2519                   8                 0.4077501
      2520                   8                 0.4077501
      2521                   8                 0.4077501
      2522                   8                 0.4077501
      2523                   8                 0.4077501
      2524                   8                 0.4077501
      2525                   8                 0.4077501
      2526                   8                 0.4077501
      2527                   8                 0.4077501
      2528                   8                 0.4077501
      2529                   8                 0.4077501
      2530                   8                 0.4077501
      2531                   8                 0.4077501
      2532                   8                 0.4077501
      2533                   8                 0.4077501
      2534                   8                 0.4077501
      2535                   8                 0.4077501
      2536                   8                 0.4077501
      2537                   8                 0.4077501
      2538                   8                 0.4077501
      2539                   8                 0.4077501
      2540                   8                 0.4077501
      2541                   8                 0.4077501
      2542                   8                 0.4077501
      2543                   8                 0.4077501
      2544                   8                 0.4077501
      2545                   8                 0.4077501
      2546                   8                 0.4077501
      2547                   8                 0.4077501
      2548                   8                 0.4077501
      2549                   8                 0.4077501
      2550                   8                 0.4077501
      2551                   8                 0.4077501
      2552                   8                 0.4077501
      2553                   8                 0.4077501
      2554                   8                 0.4077501
      2555                   8                 0.4077501
      2556                   8                 0.4077501
      2557                   8                 0.4077501
      2558                   8                 0.4077501
      2559                   8                 0.4077501
      2560                   8                 0.4077501
      2561                   8                 0.4077501
      2562                   8                 0.4077501
      2563                   8                 0.4077501
      2564                   8                 0.4077501
      2565                   8                 0.4077501
      2566                   8                 0.4077501
      2567                   8                 0.4077501
      2568                   8                 0.4077501
      2569                   8                 0.4077501
      2570                   8                 0.4077501
      2571                   8                 0.4077501
      2572                   8                 0.4077501
      2573                   8                 0.4077501
      2574                   8                 0.4077501
      2575                   8                 0.4077501
      2576                   8                 0.4077501
      2577                   8                 0.4077501
      2578                   8                 0.4077501
      2579                   8                 0.4077501
      2580                   8                 0.4077501
      2581                   8                 0.4077501
      2582                   8                 0.4077501
      2583                   8                 0.4077501
      2584                   8                 0.4077501
      2585                   8                 0.4077501
      2586                   8                 0.4077501
      2587                   8                 0.4077501
      2588                   8                 0.4077501
      2589                   8                 0.4077501
      2590                   8                 0.4077501
      2591                   8                 0.4077501
      2592                   8                 0.4077501
      2593                   8                 0.4077501
      2594                   8                 0.4077501
      2595                   8                 0.4077501
      2596                   8                 0.4077501
      2597                   8                 0.4077501
      2598                   8                 0.4077501
      2599                   8                 0.4077501
      2600                   8                 0.4077501
--------------------------------------------------------------------------------


  Peak dynamic memory used =      35.71 MB 


  Timing analysis for GULP :

--------------------------------------------------------------------------------
  Task / Subroutine                                          Time (Seconds)
--------------------------------------------------------------------------------
  Calculation of real space energy and derivatives                0.6152
  Calculation of reaxFF energy and derivatives                    0.6643
  Electronegativity equalisation                                  1.4231
  Symmetry generation of equivalent positions                     0.0006
--------------------------------------------------------------------------------
  Total CPU time                                                  2.7590
--------------------------------------------------------------------------------


  Dump file written as Vaterite_bulk.grs


  Job Finished at 20:14.41 31st October    2023                               

