
9000 atoms 
6 atom types 
0 bonds 
1 bond types 
0 angles 
1 angle types 

0.00000000 35.61950000 xlo xhi
0.00000000 61.69478374 ylo yhi
0.00000000 25.32030000 zlo zhi
0.00 0.00000000 0.00000000 xy xz yz

Masses 

1 40.08 
2 12.01 
3 15.9994 
4 15.9994
5 1.008
6 1.0e-100

Bond Coeffs # harmonic 

1 1.29 

Angle Coeffs # harmonic 

1 118.38 

Atoms 

1  1 1 2.00000000 7.00201007  0.05453819 6.33513906
2  2 1 2.00000000 3.44006007  6.22401656 6.33513906
3  3 1 2.00000000 -0.12188993  12.39349494 6.33513906
4  4 1 2.00000000 -3.68383993  18.56297331 6.33513906
5  5 1 2.00000000 -7.24578993  24.73245168 6.33513906
6  6 1 2.00000000 -10.80773993  30.90193006 6.33513906
7  7 1 2.00000000 -14.36968993  37.07140843 6.33513906
8  8 1 2.00000000 -17.93163993  43.24088680 6.33513906
9  9 1 2.00000000 -21.49358993  49.41036518 6.33513906
10  10 1 2.00000000 -25.05553993  55.57984355 6.33513906
11  11 1 2.00000000 14.12591007  0.05453819 6.33513906
12  12 1 2.00000000 10.56396007  6.22401656 6.33513906
13  13 1 2.00000000 7.00201007  12.39349494 6.33513906
14  14 1 2.00000000 3.44006007  18.56297331 6.33513906
15  15 1 2.00000000 -0.12188993  24.73245168 6.33513906
16  16 1 2.00000000 -3.68383993  30.90193006 6.33513906
17  17 1 2.00000000 -7.24578993  37.07140843 6.33513906
18  18 1 2.00000000 -10.80773993  43.24088680 6.33513906
19  19 1 2.00000000 -14.36968994  49.41036518 6.33513906
20  20 1 2.00000000 -17.93163993  55.57984355 6.33513906
21  21 1 2.00000000 21.24981007  0.05453819 6.33513906
22  22 1 2.00000000 17.68786007  6.22401656 6.33513906
23  23 1 2.00000000 14.12591007  12.39349494 6.33513906
24  24 1 2.00000000 10.56396007  18.56297331 6.33513906
25  25 1 2.00000000 7.00201007  24.73245168 6.33513906
26  26 1 2.00000000 3.44006007  30.90193006 6.33513906
27  27 1 2.00000000 -0.12188993  37.07140843 6.33513906
28  28 1 2.00000000 -3.68383993  43.24088680 6.33513906
29  29 1 2.00000000 -7.24578994  49.41036518 6.33513906
30  30 1 2.00000000 -10.80773994  55.57984355 6.33513906
31  31 1 2.00000000 28.37371007  0.05453819 6.33513906
32  32 1 2.00000000 24.81176007  6.22401656 6.33513906
33  33 1 2.00000000 21.24981007  12.39349494 6.33513906
34  34 1 2.00000000 17.68786007  18.56297331 6.33513906
35  35 1 2.00000000 14.12591007  24.73245168 6.33513906
36  36 1 2.00000000 10.56396007  30.90193006 6.33513906
37  37 1 2.00000000 7.00201007  37.07140843 6.33513906
38  38 1 2.00000000 3.44006007  43.24088680 6.33513906
39  39 1 2.00000000 -0.12188994  49.41036518 6.33513906
40  40 1 2.00000000 -3.68383993  55.57984355 6.33513906
41  41 1 2.00000000 35.49761007  0.05453819 6.33513906
42  42 1 2.00000000 31.93566007  6.22401656 6.33513906
43  43 1 2.00000000 28.37371007  12.39349494 6.33513906
44  44 1 2.00000000 24.81176007  18.56297331 6.33513906
45  45 1 2.00000000 21.24981007  24.73245168 6.33513906
46  46 1 2.00000000 17.68786007  30.90193006 6.33513906
47  47 1 2.00000000 14.12591007  37.07140843 6.33513906
48  48 1 2.00000000 10.56396007  43.24088680 6.33513906
49  49 1 2.00000000 7.00201007  49.41036518 6.33513906
50  50 1 2.00000000 3.44006006  55.57984355 6.33513906
51  51 1 2.00000000 3.57566351  6.03664950 23.21533906
52  52 1 2.00000000 0.01371351  12.20612788 23.21533906
53  53 1 2.00000000 -3.54823649  18.37560625 23.21533906
54  54 1 2.00000000 -7.11018649  24.54508463 23.21533906
55  55 1 2.00000000 -10.67213650  30.71456300 23.21533906
56  56 1 2.00000000 -14.23408650  36.88404137 23.21533906
57  57 1 2.00000000 -17.79603650  43.05351975 23.21533906
58  58 1 2.00000000 -21.35798650  49.22299812 23.21533906
59  59 1 2.00000000 -24.91993650  55.39247649 23.21533906
60  60 1 2.00000000 -28.48188650  61.56195487 23.21533906
61  61 1 2.00000000 10.69956351  6.03664950 23.21533906
62  62 1 2.00000000 7.13761351  12.20612788 23.21533906
63  63 1 2.00000000 3.57566351  18.37560625 23.21533906
64  64 1 2.00000000 0.01371351  24.54508463 23.21533906
65  65 1 2.00000000 -3.54823650  30.71456300 23.21533906
66  66 1 2.00000000 -7.11018650  36.88404137 23.21533906
67  67 1 2.00000000 -10.67213650  43.05351975 23.21533906
68  68 1 2.00000000 -14.23408650  49.22299812 23.21533906
69  69 1 2.00000000 -17.79603650  55.39247649 23.21533906
70  70 1 2.00000000 -21.35798650  61.56195487 23.21533906
71  71 1 2.00000000 17.82346351  6.03664950 23.21533906
72  72 1 2.00000000 14.26151351  12.20612788 23.21533906
73  73 1 2.00000000 10.69956351  18.37560625 23.21533906
74  74 1 2.00000000 7.13761351  24.54508463 23.21533906
75  75 1 2.00000000 3.57566350  30.71456300 23.21533906
76  76 1 2.00000000 0.01371350  36.88404137 23.21533906
77  77 1 2.00000000 -3.54823650  43.05351975 23.21533906
78  78 1 2.00000000 -7.11018650  49.22299812 23.21533906
79  79 1 2.00000000 -10.67213650  55.39247649 23.21533906
80  80 1 2.00000000 -14.23408650  61.56195487 23.21533906
81  81 1 2.00000000 24.94736351  6.03664950 23.21533906
82  82 1 2.00000000 21.38541351  12.20612788 23.21533906
83  83 1 2.00000000 17.82346350  18.37560625 23.21533906
84  84 1 2.00000000 14.26151350  24.54508463 23.21533906
85  85 1 2.00000000 10.69956350  30.71456300 23.21533906
86  86 1 2.00000000 7.13761350  36.88404137 23.21533906
87  87 1 2.00000000 3.57566350  43.05351975 23.21533906
88  88 1 2.00000000 0.01371350  49.22299812 23.21533906
89  89 1 2.00000000 -3.54823650  55.39247649 23.21533906
90  90 1 2.00000000 -7.11018650  61.56195487 23.21533906
91  91 1 2.00000000 32.07126351  6.03664950 23.21533906
92  92 1 2.00000000 28.50931351  12.20612788 23.21533906
93  93 1 2.00000000 24.94736350  18.37560625 23.21533906
94  94 1 2.00000000 21.38541350  24.54508463 23.21533906
95  95 1 2.00000000 17.82346350  30.71456300 23.21533906
96  96 1 2.00000000 14.26151350  36.88404137 23.21533906
97  97 1 2.00000000 10.69956350  43.05351975 23.21533906
98  98 1 2.00000000 7.13761350  49.22299812 23.21533906
99  99 1 2.00000000 3.57566350  55.39247649 23.21533906
100  100 1 2.00000000 0.01371350  61.56195487 23.21533906
101  101 1 2.00000000 0.10817642  0.07829068 14.77523906
102  102 1 2.00000000 -3.45377358  6.24776905 14.77523906
103  103 1 2.00000000 -7.01572358  12.41724743 14.77523906
104  104 1 2.00000000 -10.57767358  18.58672580 14.77523906
105  105 1 2.00000000 -14.13962358  24.75620418 14.77523906
106  106 1 2.00000000 -17.70157358  30.92568255 14.77523906
107  107 1 2.00000000 -21.26352358  37.09516092 14.77523906
108  108 1 2.00000000 -24.82547358  43.26463930 14.77523906
109  109 1 2.00000000 -28.38742358  49.43411767 14.77523906
110  110 1 2.00000000 -31.94937359  55.60359604 14.77523906
111  111 1 2.00000000 7.23207642  0.07829068 14.77523906
112  112 1 2.00000000 3.67012642  6.24776905 14.77523906
113  113 1 2.00000000 0.10817642  12.41724743 14.77523906
114  114 1 2.00000000 -3.45377358  18.58672580 14.77523906
115  115 1 2.00000000 -7.01572358  24.75620418 14.77523906
116  116 1 2.00000000 -10.57767358  30.92568255 14.77523906
117  117 1 2.00000000 -14.13962358  37.09516092 14.77523906
118  118 1 2.00000000 -17.70157358  43.26463930 14.77523906
119  119 1 2.00000000 -21.26352358  49.43411767 14.77523906
120  120 1 2.00000000 -24.82547359  55.60359604 14.77523906
121  121 1 2.00000000 14.35597642  0.07829068 14.77523906
122  122 1 2.00000000 10.79402642  6.24776905 14.77523906
123  123 1 2.00000000 7.23207642  12.41724743 14.77523906
124  124 1 2.00000000 3.67012642  18.58672580 14.77523906
125  125 1 2.00000000 0.10817642  24.75620418 14.77523906
126  126 1 2.00000000 -3.45377358  30.92568255 14.77523906
127  127 1 2.00000000 -7.01572358  37.09516092 14.77523906
128  128 1 2.00000000 -10.57767358  43.26463930 14.77523906
129  129 1 2.00000000 -14.13962358  49.43411767 14.77523906
130  130 1 2.00000000 -17.70157358  55.60359604 14.77523906
131  131 1 2.00000000 21.47987642  0.07829068 14.77523906
132  132 1 2.00000000 17.91792642  6.24776905 14.77523906
133  133 1 2.00000000 14.35597642  12.41724743 14.77523906
134  134 1 2.00000000 10.79402642  18.58672580 14.77523906
135  135 1 2.00000000 7.23207642  24.75620418 14.77523906
136  136 1 2.00000000 3.67012642  30.92568255 14.77523906
137  137 1 2.00000000 0.10817642  37.09516092 14.77523906
138  138 1 2.00000000 -3.45377358  43.26463930 14.77523906
139  139 1 2.00000000 -7.01572358  49.43411767 14.77523906
140  140 1 2.00000000 -10.57767358  55.60359604 14.77523906
141  141 1 2.00000000 28.60377642  0.07829068 14.77523906
142  142 1 2.00000000 25.04182642  6.24776905 14.77523906
143  143 1 2.00000000 21.47987642  12.41724743 14.77523906
144  144 1 2.00000000 17.91792642  18.58672580 14.77523906
145  145 1 2.00000000 14.35597642  24.75620418 14.77523906
146  146 1 2.00000000 10.79402642  30.92568255 14.77523906
147  147 1 2.00000000 7.23207642  37.09516092 14.77523906
148  148 1 2.00000000 3.67012642  43.26463930 14.77523906
149  149 1 2.00000000 0.10817642  49.43411767 14.77523906
150  150 1 2.00000000 -3.45377358  55.60359604 14.77523906
151  151 1 2.00000000 3.44006007  6.11494019 2.10496094
152  152 1 2.00000000 -0.12188993  12.28441856 2.10496094
153  153 1 2.00000000 -3.68383993  18.45389693 2.10496094
154  154 1 2.00000000 -7.24578993  24.62337531 2.10496094
155  155 1 2.00000000 -10.80773993  30.79285368 2.10496094
156  156 1 2.00000000 -14.36968993  36.96233205 2.10496094
157  157 1 2.00000000 -17.93163993  43.13181043 2.10496094
158  158 1 2.00000000 -21.49358993  49.30128880 2.10496094
159  159 1 2.00000000 -25.05553993  55.47076717 2.10496094
160  160 1 2.00000000 -28.61748994  61.64024555 2.10496094
161  161 1 2.00000000 10.56396007  6.11494019 2.10496094
162  162 1 2.00000000 7.00201007  12.28441856 2.10496094
163  163 1 2.00000000 3.44006007  18.45389693 2.10496094
164  164 1 2.00000000 -0.12188993  24.62337531 2.10496094
165  165 1 2.00000000 -3.68383993  30.79285368 2.10496094
166  166 1 2.00000000 -7.24578993  36.96233205 2.10496094
167  167 1 2.00000000 -10.80773993  43.13181043 2.10496094
168  168 1 2.00000000 -14.36968994  49.30128880 2.10496094
169  169 1 2.00000000 -17.93163993  55.47076717 2.10496094
170  170 1 2.00000000 -21.49358994  61.64024555 2.10496094
171  171 1 2.00000000 17.68786007  6.11494019 2.10496094
172  172 1 2.00000000 14.12591007  12.28441856 2.10496094
173  173 1 2.00000000 10.56396007  18.45389693 2.10496094
174  174 1 2.00000000 7.00201007  24.62337531 2.10496094
175  175 1 2.00000000 3.44006007  30.79285368 2.10496094
176  176 1 2.00000000 -0.12188993  36.96233205 2.10496094
177  177 1 2.00000000 -3.68383993  43.13181043 2.10496094
178  178 1 2.00000000 -7.24578994  49.30128880 2.10496094
179  179 1 2.00000000 -10.80773994  55.47076717 2.10496094
180  180 1 2.00000000 -14.36968994  61.64024555 2.10496094
181  181 1 2.00000000 24.81176007  6.11494019 2.10496094
182  182 1 2.00000000 21.24981007  12.28441856 2.10496094
183  183 1 2.00000000 17.68786007  18.45389693 2.10496094
184  184 1 2.00000000 14.12591007  24.62337531 2.10496094
185  185 1 2.00000000 10.56396007  30.79285368 2.10496094
186  186 1 2.00000000 7.00201007  36.96233205 2.10496094
187  187 1 2.00000000 3.44006007  43.13181043 2.10496094
188  188 1 2.00000000 -0.12188994  49.30128880 2.10496094
189  189 1 2.00000000 -3.68383993  55.47076717 2.10496094
190  190 1 2.00000000 -7.24578994  61.64024555 2.10496094
191  191 1 2.00000000 31.93566007  6.11494019 2.10496094
192  192 1 2.00000000 28.37371007  12.28441856 2.10496094
193  193 1 2.00000000 24.81176007  18.45389693 2.10496094
194  194 1 2.00000000 21.24981007  24.62337531 2.10496094
195  195 1 2.00000000 17.68786007  30.79285368 2.10496094
196  196 1 2.00000000 14.12591007  36.96233205 2.10496094
197  197 1 2.00000000 10.56396007  43.13181043 2.10496094
198  198 1 2.00000000 7.00201007  49.30128880 2.10496094
199  199 1 2.00000000 3.44006006  55.47076717 2.10496094
200  200 1 2.00000000 -0.12188994  61.64024555 2.10496094
201  201 1 2.00000000 0.01371351  0.13282887 10.54506094
202  202 1 2.00000000 -3.54823649  6.30230724 10.54506094
203  203 1 2.00000000 -7.11018649  12.47178562 10.54506094
204  204 1 2.00000000 -10.67213650  18.64126399 10.54506094
205  205 1 2.00000000 -14.23408649  24.81074236 10.54506094
206  206 1 2.00000000 -17.79603650  30.98022074 10.54506094
207  207 1 2.00000000 -21.35798650  37.14969911 10.54506094
208  208 1 2.00000000 -24.91993650  43.31917748 10.54506094
209  209 1 2.00000000 -28.48188650  49.48865586 10.54506094
210  210 1 2.00000000 -32.04383650  55.65813423 10.54506094
211  211 1 2.00000000 7.13761351  0.13282887 10.54506094
212  212 1 2.00000000 3.57566351  6.30230724 10.54506094
213  213 1 2.00000000 0.01371351  12.47178562 10.54506094
214  214 1 2.00000000 -3.54823649  18.64126399 10.54506094
215  215 1 2.00000000 -7.11018649  24.81074236 10.54506094
216  216 1 2.00000000 -10.67213650  30.98022074 10.54506094
217  217 1 2.00000000 -14.23408650  37.14969911 10.54506094
218  218 1 2.00000000 -17.79603650  43.31917748 10.54506094
219  219 1 2.00000000 -21.35798650  49.48865586 10.54506094
220  220 1 2.00000000 -24.91993650  55.65813423 10.54506094
221  221 1 2.00000000 14.26151351  0.13282887 10.54506094
222  222 1 2.00000000 10.69956351  6.30230724 10.54506094
223  223 1 2.00000000 7.13761351  12.47178562 10.54506094
224  224 1 2.00000000 3.57566351  18.64126399 10.54506094
225  225 1 2.00000000 0.01371351  24.81074236 10.54506094
226  226 1 2.00000000 -3.54823650  30.98022074 10.54506094
227  227 1 2.00000000 -7.11018650  37.14969911 10.54506094
228  228 1 2.00000000 -10.67213650  43.31917748 10.54506094
229  229 1 2.00000000 -14.23408650  49.48865586 10.54506094
230  230 1 2.00000000 -17.79603650  55.65813423 10.54506094
231  231 1 2.00000000 21.38541351  0.13282887 10.54506094
232  232 1 2.00000000 17.82346351  6.30230724 10.54506094
233  233 1 2.00000000 14.26151351  12.47178562 10.54506094
234  234 1 2.00000000 10.69956351  18.64126399 10.54506094
235  235 1 2.00000000 7.13761351  24.81074236 10.54506094
236  236 1 2.00000000 3.57566350  30.98022074 10.54506094
237  237 1 2.00000000 0.01371350  37.14969911 10.54506094
238  238 1 2.00000000 -3.54823650  43.31917748 10.54506094
239  239 1 2.00000000 -7.11018650  49.48865586 10.54506094
240  240 1 2.00000000 -10.67213650  55.65813423 10.54506094
241  241 1 2.00000000 28.50931351  0.13282887 10.54506094
242  242 1 2.00000000 24.94736351  6.30230724 10.54506094
243  243 1 2.00000000 21.38541351  12.47178562 10.54506094
244  244 1 2.00000000 17.82346350  18.64126399 10.54506094
245  245 1 2.00000000 14.26151350  24.81074236 10.54506094
246  246 1 2.00000000 10.69956350  30.98022074 10.54506094
247  247 1 2.00000000 7.13761350  37.14969911 10.54506094
248  248 1 2.00000000 3.57566350  43.31917748 10.54506094
249  249 1 2.00000000 0.01371350  49.48865586 10.54506094
250  250 1 2.00000000 -3.54823650  55.65813423 10.54506094
251  251 1 2.00000000 -3.45377358  6.09118769 18.98516094
252  252 1 2.00000000 -7.01572358  12.26066607 18.98516094
253  253 1 2.00000000 -10.57767358  18.43014444 18.98516094
254  254 1 2.00000000 -14.13962358  24.59962281 18.98516094
255  255 1 2.00000000 -17.70157358  30.76910119 18.98516094
256  256 1 2.00000000 -21.26352358  36.93857956 18.98516094
257  257 1 2.00000000 -24.82547358  43.10805793 18.98516094
258  258 1 2.00000000 -28.38742358  49.27753631 18.98516094
259  259 1 2.00000000 -31.94937359  55.44701468 18.98516094
260  260 1 2.00000000 -35.51132358  61.61649306 18.98516094
261  261 1 2.00000000 3.67012642  6.09118769 18.98516094
262  262 1 2.00000000 0.10817642  12.26066607 18.98516094
263  263 1 2.00000000 -3.45377358  18.43014444 18.98516094
264  264 1 2.00000000 -7.01572358  24.59962281 18.98516094
265  265 1 2.00000000 -10.57767358  30.76910119 18.98516094
266  266 1 2.00000000 -14.13962358  36.93857956 18.98516094
267  267 1 2.00000000 -17.70157358  43.10805793 18.98516094
268  268 1 2.00000000 -21.26352358  49.27753631 18.98516094
269  269 1 2.00000000 -24.82547359  55.44701468 18.98516094
270  270 1 2.00000000 -28.38742359  61.61649306 18.98516094
271  271 1 2.00000000 10.79402642  6.09118769 18.98516094
272  272 1 2.00000000 7.23207642  12.26066607 18.98516094
273  273 1 2.00000000 3.67012642  18.43014444 18.98516094
274  274 1 2.00000000 0.10817642  24.59962281 18.98516094
275  275 1 2.00000000 -3.45377358  30.76910119 18.98516094
276  276 1 2.00000000 -7.01572358  36.93857956 18.98516094
277  277 1 2.00000000 -10.57767358  43.10805793 18.98516094
278  278 1 2.00000000 -14.13962358  49.27753631 18.98516094
279  279 1 2.00000000 -17.70157358  55.44701468 18.98516094
280  280 1 2.00000000 -21.26352359  61.61649306 18.98516094
281  281 1 2.00000000 17.91792642  6.09118769 18.98516094
282  282 1 2.00000000 14.35597642  12.26066607 18.98516094
283  283 1 2.00000000 10.79402642  18.43014444 18.98516094
284  284 1 2.00000000 7.23207642  24.59962281 18.98516094
285  285 1 2.00000000 3.67012642  30.76910119 18.98516094
286  286 1 2.00000000 0.10817642  36.93857956 18.98516094
287  287 1 2.00000000 -3.45377358  43.10805793 18.98516094
288  288 1 2.00000000 -7.01572358  49.27753631 18.98516094
289  289 1 2.00000000 -10.57767358  55.44701468 18.98516094
290  290 1 2.00000000 -14.13962359  61.61649306 18.98516094
291  291 1 2.00000000 25.04182642  6.09118769 18.98516094
292  292 1 2.00000000 21.47987642  12.26066607 18.98516094
293  293 1 2.00000000 17.91792642  18.43014444 18.98516094
294  294 1 2.00000000 14.35597642  24.59962281 18.98516094
295  295 1 2.00000000 10.79402642  30.76910119 18.98516094
296  296 1 2.00000000 7.23207642  36.93857956 18.98516094
297  297 1 2.00000000 3.67012642  43.10805793 18.98516094
298  298 1 2.00000000 0.10817642  49.27753631 18.98516094
299  299 1 2.00000000 -3.45377358  55.44701468 18.98516094
300  300 1 2.00000000 -7.01572358  61.61649306 18.98516094
301  301 1 2.00000000 3.71098199  1.83184152 6.42502612
302  302 1 2.00000000 0.14903199  8.00131989 6.42502612
303  303 1 2.00000000 -3.41291801  14.17079827 6.42502612
304  304 1 2.00000000 -6.97486801  20.34027664 6.42502612
305  305 1 2.00000000 -10.53681801  26.50975501 6.42502612
306  306 1 2.00000000 -14.09876802  32.67923339 6.42502612
307  307 1 2.00000000 -17.66071802  38.84871176 6.42502612
308  308 1 2.00000000 -21.22266802  45.01819013 6.42502612
309  309 1 2.00000000 -24.78461802  51.18766851 6.42502612
310  310 1 2.00000000 -28.34656802  57.35714688 6.42502612
311  311 1 2.00000000 10.83488199  1.83184152 6.42502612
312  312 1 2.00000000 7.27293199  8.00131989 6.42502612
313  313 1 2.00000000 3.71098199  14.17079827 6.42502612
314  314 1 2.00000000 0.14903199  20.34027664 6.42502612
315  315 1 2.00000000 -3.41291801  26.50975501 6.42502612
316  316 1 2.00000000 -6.97486802  32.67923339 6.42502612
317  317 1 2.00000000 -10.53681802  38.84871176 6.42502612
318  318 1 2.00000000 -14.09876802  45.01819013 6.42502612
319  319 1 2.00000000 -17.66071802  51.18766851 6.42502612
320  320 1 2.00000000 -21.22266802  57.35714688 6.42502612
321  321 1 2.00000000 17.95878199  1.83184152 6.42502612
322  322 1 2.00000000 14.39683199  8.00131989 6.42502612
323  323 1 2.00000000 10.83488199  14.17079827 6.42502612
324  324 1 2.00000000 7.27293199  20.34027664 6.42502612
325  325 1 2.00000000 3.71098199  26.50975501 6.42502612
326  326 1 2.00000000 0.14903198  32.67923339 6.42502612
327  327 1 2.00000000 -3.41291802  38.84871176 6.42502612
328  328 1 2.00000000 -6.97486802  45.01819013 6.42502612
329  329 1 2.00000000 -10.53681802  51.18766851 6.42502612
330  330 1 2.00000000 -14.09876802  57.35714688 6.42502612
331  331 1 2.00000000 25.08268199  1.83184152 6.42502612
332  332 1 2.00000000 21.52073199  8.00131989 6.42502612
333  333 1 2.00000000 17.95878199  14.17079827 6.42502612
334  334 1 2.00000000 14.39683199  20.34027664 6.42502612
335  335 1 2.00000000 10.83488199  26.50975501 6.42502612
336  336 1 2.00000000 7.27293198  32.67923339 6.42502612
337  337 1 2.00000000 3.71098198  38.84871176 6.42502612
338  338 1 2.00000000 0.14903198  45.01819013 6.42502612
339  339 1 2.00000000 -3.41291802  51.18766851 6.42502612
340  340 1 2.00000000 -6.97486802  57.35714688 6.42502612
341  341 1 2.00000000 32.20658199  1.83184152 6.42502612
342  342 1 2.00000000 28.64463199  8.00131989 6.42502612
343  343 1 2.00000000 25.08268199  14.17079827 6.42502612
344  344 1 2.00000000 21.52073199  20.34027664 6.42502612
345  345 1 2.00000000 17.95878199  26.50975501 6.42502612
346  346 1 2.00000000 14.39683198  32.67923339 6.42502612
347  347 1 2.00000000 10.83488198  38.84871176 6.42502612
348  348 1 2.00000000 7.27293198  45.01819013 6.42502612
349  349 1 2.00000000 3.71098198  51.18766851 6.42502612
350  350 1 2.00000000 0.14903198  57.35714688 6.42502612
351  351 1 2.00000000 3.68198771  2.29788391 23.30522613
352  352 1 2.00000000 0.12003771  8.46736229 23.30522613
353  353 1 2.00000000 -3.44191229  14.63684066 23.30522613
354  354 1 2.00000000 -7.00386229  20.80631904 23.30522613
355  355 1 2.00000000 -10.56581229  26.97579741 23.30522613
356  356 1 2.00000000 -14.12776229  33.14527578 23.30522613
357  357 1 2.00000000 -17.68971229  39.31475416 23.30522613
358  358 1 2.00000000 -21.25166229  45.48423253 23.30522613
359  359 1 2.00000000 -24.81361229  51.65371090 23.30522613
360  360 1 2.00000000 -28.37556229  57.82318928 23.30522613
361  361 1 2.00000000 10.80588772  2.29788391 23.30522613
362  362 1 2.00000000 7.24393771  8.46736229 23.30522613
363  363 1 2.00000000 3.68198771  14.63684066 23.30522613
364  364 1 2.00000000 0.12003771  20.80631904 23.30522613
365  365 1 2.00000000 -3.44191229  26.97579741 23.30522613
366  366 1 2.00000000 -7.00386229  33.14527578 23.30522613
367  367 1 2.00000000 -10.56581229  39.31475416 23.30522613
368  368 1 2.00000000 -14.12776229  45.48423253 23.30522613
369  369 1 2.00000000 -17.68971229  51.65371090 23.30522613
370  370 1 2.00000000 -21.25166229  57.82318928 23.30522613
371  371 1 2.00000000 17.92978771  2.29788391 23.30522613
372  372 1 2.00000000 14.36783771  8.46736229 23.30522613
373  373 1 2.00000000 10.80588771  14.63684066 23.30522613
374  374 1 2.00000000 7.24393771  20.80631904 23.30522613
375  375 1 2.00000000 3.68198771  26.97579741 23.30522613
376  376 1 2.00000000 0.12003771  33.14527578 23.30522613
377  377 1 2.00000000 -3.44191229  39.31475416 23.30522613
378  378 1 2.00000000 -7.00386229  45.48423253 23.30522613
379  379 1 2.00000000 -10.56581229  51.65371090 23.30522613
380  380 1 2.00000000 -14.12776229  57.82318928 23.30522613
381  381 1 2.00000000 25.05368771  2.29788391 23.30522613
382  382 1 2.00000000 21.49173771  8.46736229 23.30522613
383  383 1 2.00000000 17.92978771  14.63684066 23.30522613
384  384 1 2.00000000 14.36783771  20.80631904 23.30522613
385  385 1 2.00000000 10.80588771  26.97579741 23.30522613
386  386 1 2.00000000 7.24393771  33.14527578 23.30522613
387  387 1 2.00000000 3.68198771  39.31475416 23.30522613
388  388 1 2.00000000 0.12003771  45.48423253 23.30522613
389  389 1 2.00000000 -3.44191229  51.65371090 23.30522613
390  390 1 2.00000000 -7.00386229  57.82318928 23.30522613
391  391 1 2.00000000 32.17758772  2.29788391 23.30522613
392  392 1 2.00000000 28.61563771  8.46736229 23.30522613
393  393 1 2.00000000 25.05368771  14.63684066 23.30522613
394  394 1 2.00000000 21.49173771  20.80631904 23.30522613
395  395 1 2.00000000 17.92978771  26.97579741 23.30522613
396  396 1 2.00000000 14.36783771  33.14527578 23.30522613
397  397 1 2.00000000 10.80588771  39.31475416 23.30522613
398  398 1 2.00000000 7.24393771  45.48423253 23.30522613
399  399 1 2.00000000 3.68198771  51.65371090 23.30522613
400  400 1 2.00000000 0.12003771  57.82318928 23.30522613
401  401 1 2.00000000 3.29288030  2.03975294 14.86512612
402  402 1 2.00000000 -0.26906970  8.20923131 14.86512612
403  403 1 2.00000000 -3.83101971  14.37870969 14.86512612
404  404 1 2.00000000 -7.39296970  20.54818806 14.86512612
405  405 1 2.00000000 -10.95491971  26.71766643 14.86512612
406  406 1 2.00000000 -14.51686971  32.88714481 14.86512612
407  407 1 2.00000000 -18.07881971  39.05662318 14.86512612
408  408 1 2.00000000 -21.64076971  45.22610155 14.86512612
409  409 1 2.00000000 -25.20271971  51.39557993 14.86512612
410  410 1 2.00000000 -28.76466971  57.56505830 14.86512612
411  411 1 2.00000000 10.41678030  2.03975294 14.86512612
412  412 1 2.00000000 6.85483030  8.20923131 14.86512612
413  413 1 2.00000000 3.29288029  14.37870969 14.86512612
414  414 1 2.00000000 -0.26906970  20.54818806 14.86512612
415  415 1 2.00000000 -3.83101971  26.71766643 14.86512612
416  416 1 2.00000000 -7.39296971  32.88714481 14.86512612
417  417 1 2.00000000 -10.95491971  39.05662318 14.86512612
418  418 1 2.00000000 -14.51686971  45.22610155 14.86512612
419  419 1 2.00000000 -18.07881971  51.39557993 14.86512612
420  420 1 2.00000000 -21.64076971  57.56505830 14.86512612
421  421 1 2.00000000 17.54068030  2.03975294 14.86512612
422  422 1 2.00000000 13.97873030  8.20923131 14.86512612
423  423 1 2.00000000 10.41678030  14.37870969 14.86512612
424  424 1 2.00000000 6.85483030  20.54818806 14.86512612
425  425 1 2.00000000 3.29288029  26.71766643 14.86512612
426  426 1 2.00000000 -0.26906971  32.88714481 14.86512612
427  427 1 2.00000000 -3.83101971  39.05662318 14.86512612
428  428 1 2.00000000 -7.39296971  45.22610155 14.86512612
429  429 1 2.00000000 -10.95491971  51.39557993 14.86512612
430  430 1 2.00000000 -14.51686971  57.56505830 14.86512612
431  431 1 2.00000000 24.66458030  2.03975294 14.86512612
432  432 1 2.00000000 21.10263030  8.20923131 14.86512612
433  433 1 2.00000000 17.54068030  14.37870969 14.86512612
434  434 1 2.00000000 13.97873030  20.54818806 14.86512612
435  435 1 2.00000000 10.41678029  26.71766643 14.86512612
436  436 1 2.00000000 6.85483029  32.88714481 14.86512612
437  437 1 2.00000000 3.29288029  39.05662318 14.86512612
438  438 1 2.00000000 -0.26906971  45.22610155 14.86512612
439  439 1 2.00000000 -3.83101971  51.39557993 14.86512612
440  440 1 2.00000000 -7.39296971  57.56505830 14.86512612
441  441 1 2.00000000 31.78848030  2.03975294 14.86512612
442  442 1 2.00000000 28.22653030  8.20923131 14.86512612
443  443 1 2.00000000 24.66458030  14.37870969 14.86512612
444  444 1 2.00000000 21.10263030  20.54818806 14.86512612
445  445 1 2.00000000 17.54068029  26.71766643 14.86512612
446  446 1 2.00000000 13.97873029  32.88714481 14.86512612
447  447 1 2.00000000 10.41678029  39.05662318 14.86512612
448  448 1 2.00000000 6.85483029  45.22610155 14.86512612
449  449 1 2.00000000 3.29288029  51.39557993 14.86512612
450  450 1 2.00000000 -0.26906971  57.56505830 14.86512612
451  451 1 2.00000000 0.14903199  4.33763686 2.01507388
452  452 1 2.00000000 -3.41291801  10.50711523 2.01507388
453  453 1 2.00000000 -6.97486801  16.67659360 2.01507388
454  454 1 2.00000000 -10.53681801  22.84607198 2.01507388
455  455 1 2.00000000 -14.09876801  29.01555035 2.01507388
456  456 1 2.00000000 -17.66071802  35.18502872 2.01507388
457  457 1 2.00000000 -21.22266802  41.35450710 2.01507388
458  458 1 2.00000000 -24.78461802  47.52398547 2.01507388
459  459 1 2.00000000 -28.34656802  53.69346384 2.01507388
460  460 1 2.00000000 -31.90851802  59.86294222 2.01507388
461  461 1 2.00000000 7.27293199  4.33763686 2.01507388
462  462 1 2.00000000 3.71098199  10.50711523 2.01507388
463  463 1 2.00000000 0.14903199  16.67659360 2.01507388
464  464 1 2.00000000 -3.41291801  22.84607198 2.01507388
465  465 1 2.00000000 -6.97486802  29.01555035 2.01507388
466  466 1 2.00000000 -10.53681802  35.18502872 2.01507388
467  467 1 2.00000000 -14.09876802  41.35450710 2.01507388
468  468 1 2.00000000 -17.66071802  47.52398547 2.01507388
469  469 1 2.00000000 -21.22266802  53.69346384 2.01507388
470  470 1 2.00000000 -24.78461802  59.86294222 2.01507388
471  471 1 2.00000000 14.39683199  4.33763686 2.01507388
472  472 1 2.00000000 10.83488199  10.50711523 2.01507388
473  473 1 2.00000000 7.27293199  16.67659360 2.01507388
474  474 1 2.00000000 3.71098199  22.84607198 2.01507388
475  475 1 2.00000000 0.14903199  29.01555035 2.01507388
476  476 1 2.00000000 -3.41291802  35.18502872 2.01507388
477  477 1 2.00000000 -6.97486802  41.35450710 2.01507388
478  478 1 2.00000000 -10.53681802  47.52398547 2.01507388
479  479 1 2.00000000 -14.09876802  53.69346384 2.01507388
480  480 1 2.00000000 -17.66071802  59.86294222 2.01507388
481  481 1 2.00000000 21.52073199  4.33763686 2.01507388
482  482 1 2.00000000 17.95878199  10.50711523 2.01507388
483  483 1 2.00000000 14.39683199  16.67659360 2.01507388
484  484 1 2.00000000 10.83488199  22.84607198 2.01507388
485  485 1 2.00000000 7.27293198  29.01555035 2.01507388
486  486 1 2.00000000 3.71098198  35.18502872 2.01507388
487  487 1 2.00000000 0.14903198  41.35450710 2.01507388
488  488 1 2.00000000 -3.41291802  47.52398547 2.01507388
489  489 1 2.00000000 -6.97486802  53.69346384 2.01507388
490  490 1 2.00000000 -10.53681802  59.86294222 2.01507388
491  491 1 2.00000000 28.64463199  4.33763686 2.01507388
492  492 1 2.00000000 25.08268199  10.50711523 2.01507388
493  493 1 2.00000000 21.52073199  16.67659360 2.01507388
494  494 1 2.00000000 17.95878199  22.84607198 2.01507388
495  495 1 2.00000000 14.39683199  29.01555035 2.01507388
496  496 1 2.00000000 10.83488198  35.18502872 2.01507388
497  497 1 2.00000000 7.27293198  41.35450710 2.01507388
498  498 1 2.00000000 3.71098198  47.52398547 2.01507388
499  499 1 2.00000000 0.14903198  53.69346384 2.01507388
500  500 1 2.00000000 -3.41291802  59.86294222 2.01507388
501  501 1 2.00000000 0.12003772  3.87159446 10.45517387